ITEM: TIMESTEP
18700000
ITEM: NUMBER OF ATOMS
2261
ITEM: BOX BOUNDS ff ff ff
-0.01 0.45
-0.15 0.15
-0.08 0.1
ITEM: ATOMS id type x y z ix iy iz vx vy vz fx fy fz c_cc_1 c_cc_2 c_cc_3 c_cc_4 c_cc_5 c_cc_6 c_cc_7 c_cc_8 c_cc_9 c_cc_10 c_cc_11 c_cc_12 c_cc_13 c_cc_14 c_cc_15 c_cc_16 f_fppacc radius 
585 8 0.0151694 -0.045323 -0.0358829 0 0 0 -0.306473 -10.1212 9.45519 0 -0.000164368 0 0 0 0 0 0 0 0 0 0 0 0 0 0 0 0 0 54 0.002 
938 4 0.00378218 -0.0571776 -0.00887218 0 0 0 2.99615 -17.9707 34.2427 0.180352 2.16187 1.62315 0 0 0 0 0 0 0 0 0 0 0 0 0 0 0 0 144 0.002 
2323 3 0.00387238 -0.039051 -0.0389852 0 0 0 6.18295 -9.04983 18.0371 0 -0.000164368 0 0 0 0 0 0 0 0 0 0 0 0 0 0 0 0 0 0 0.002 
165 4 0.00907931 -0.0349537 -0.0457933 0 0 0 3.05465 -17.8697 16.9848 0 -0.000164368 0 0 0 0 0 0 0 0 0 0 0 0 0 0 0 0 0 183 0.002 
143 8 0.00351577 -0.0258419 -0.0496344 0 0 0 -0.385098 -8.71718 1.91275 0 -0.000164368 0 0 0 0 0 0 0 0 0 0 0 0 0 0 0 0 0 163 0.002 
333 2 0.00575798 -0.0348615 -0.0409103 0 0 0 -0.100379 -9.45458 6.86737 0 -0.000164368 0 0 0 0 0 0 0 0 0 0 0 0 0 0 0 0 0 135 0.002 
1716 6 0.0150734 -0.0129578 0.0562026 0 0 0 -0.681252 16.8089 3.83698 0 -0.000164368 0 0 0 0 0 0 0 0 0 0 0 0 0 0 0 0 0 73 0.002 
933 2 0.0130282 -0.00791088 0.0563514 0 0 0 2.3268 15.7233 1.63185 0 -0.000164368 0 0 0 0 0 0 0 0 0 0 0 0 0 0 0 0 0 154 0.002 
311 2 0.0128218 -0.00292985 0.0574107 0 0 0 -10.255 24.2454 -0.401375 0 -0.000164368 0 0 0 0 0 0 0 0 0 0 0 0 0 0 0 0 0 64 0.002 
770 5 0.00479086 0.0333529 0.00825883 0 0 0 -0.0883447 -1.01965 4.39706 0 -0.000164368 0 0 0 0 0 0 0 0 0 0 0 0 0 0 0 0 0 103 0.002 
351 8 0.00727706 0.0362402 -0.0448922 0 0 0 -4.34167 -1.50378 0.970502 0 -0.000164368 0 0 0 0 0 0 0 0 0 0 0 0 0 0 0 0 0 112 0.002 
965 2 0.00704814 0.0285991 -0.0355655 0 0 0 0.240914 -1.35187 0.142113 0 -0.000164368 0 0 0 0 0 0 0 0 0 0 0 0 0 0 0 0 0 152 0.002 
1183 1 0.00325901 0.0317183 -0.0174055 0 0 0 0.0489579 -0.842734 1.38003 0 -0.000164368 0 0 0 0 0 0 0 0 0 0 0 0 0 0 0 0 0 132 0.002 
1824 8 0.0170982 0.031661 -0.0314165 0 0 0 -15.3767 -20.7689 1.53841 0 -0.000164368 0 0 0 0 0 0 0 0 0 0 0 0 0 0 0 0 0 96 0.002 
2219 7 0.0095093 0.0348657 0.0434026 0 0 0 0.802389 4.92699 -3.93459 0 -0.000164368 0 0 0 0 0 0 0 0 0 0 0 0 0 0 0 0 0 0 0.002 
1530 2 0.0074215 0.0190771 0.0545835 0 0 0 0.951674 9.1295 -2.886 0 -0.000164368 0 0 0 0 0 0 0 0 0 0 0 0 0 0 0 0 0 113 0.002 
2115 3 0.0171161 0.000793749 0.0579902 0 0 0 -6.34517 39.6635 2.48589 -0.709 0.371106 -1.36161 0 0 0 0 0 0 0 0 0 0 0 0 0 0 0 0 61 0.002 
1295 3 0.00339792 0.0436298 -0.0336997 0 0 0 0.109058 0.182383 0.896401 0 -0.000164368 0 0 0 0 0 0 0 0 0 0 0 0 0 0 0 0 0 126 0.002 
665 4 0.0179953 0.0512991 -0.035504 0 0 0 -1.77972e-05 -3.19789e-05 6.04011e-07 0.000111942 0.000113241 -5.65398e-07 0 0 0 2 0 0 0 0 0 0 0 0 0 0 0 0 272 0.002 
393 1 0.013745 0.0541007 -0.0355 0 0 0 -2.31611e-70 3.0449e-19 3.92801e-12 -8.57911e-69 0 0 0 0 0 0 0 0 0 0 0 0 0 0 0 0 0 0 1 0.002 
1145 2 0.0126128 0.0650917 -0.0355 0 0 0 7.41691e-79 -6.08986e-20 5.66809e-13 1.66916e-78 1.35525e-20 0 0 0 0 0 0 0 0 0 0 0 0 0 0 0 0 0 4 0.002 
465 6 0.0169568 0.0642926 -0.0355041 0 0 0 -0.0185933 0.0182347 0.0475844 1.72737e-05 0.0113496 -0.0157714 0 0 0 0 0 1 0 0 0 0 0 0 0 0 0 0 21 0.002 
1780 5 0.0134179 0.0453638 -0.0328465 0 0 0 -2.39394 -6.39424 -1.66799 0 -0.000164368 0 0 0 0 0 0 0 0 0 0 0 0 0 0 0 0 0 77 0.002 
1615 11 0.00677129 0.0578104 -0.0319925 0 0 0 0.725655 -1.8826 -0.501133 0 -0.000164368 0 0 0 0 0 0 0 0 0 0 0 0 0 0 0 0 0 128 0.002 
59 1 0.00366976 0.0660847 -0.0328842 0 0 0 0.220375 -0.359614 0.033045 0 -0.000164368 0 0 0 0 0 0 0 0 0 0 0 0 0 0 0 0 0 149 0.002 
1652 6 0.00435452 0.0491128 -0.0302036 0 0 0 -0.556082 -2.32691 1.31509 0 -0.000164368 0 0 0 0 0 0 0 0 0 0 0 0 0 0 0 0 0 98 0.002 
1873 4 0.0172972 0.0597588 -0.0289242 0 0 0 -2.45076 -4.47436 2.33401 0 -0.000164368 0 0 0 0 0 0 0 0 0 0 0 0 0 0 0 0 0 37 0.002 
2073 2 0.00696094 0.0631752 -0.0313726 0 0 0 0.174782 -1.27426 -0.147437 0 -0.000164368 0 0 0 0 0 0 0 0 0 0 0 0 0 0 0 0 0 38 0.002 
1896 2 0.0134417 0.0640716 -0.0308843 0 0 0 -2.51138 -0.00204382 -0.167532 0 -0.000164368 0 0 0 0 0 0 0 0 0 0 0 0 0 0 0 0 0 97 0.002 
1066 3 0.00385814 0.0739788 -0.0295192 0 0 0 -2.39775 -0.906304 0.200923 0.0643408 0.0195856 -0.00688478 0 0 1 0 0 0 0 0 0 0 0 0 0 0 0 0 101 0.002 
2147 2 0.0104448 0.0588827 -0.0285 0 0 0 -2.13276 -1.9957 -1.19834 0 -0.000164368 0 0 0 0 0 0 0 0 0 0 0 0 0 0 0 0 0 45 0.002 
890 1 0.00627977 0.0531523 -0.0255417 0 0 0 1.01156 -0.868878 -0.0235609 0 -0.000164368 0 0 0 0 0 0 0 0 0 0 0 0 0 0 0 0 0 145 0.002 
1091 12 0.00775996 0.0738664 -0.0301511 0 0 0 -0.563479 -3.14079 0.0775331 -0.0643408 -0.0199143 0.00688478 0 0 1 0 0 0 0 0 0 0 0 0 0 0 0 0 127 0.002 
2271 5 0.00758006 0.0444317 -0.0242097 0 0 0 1.29426 -2.76344 -0.745556 0 -0.000164368 0 0 0 0 0 0 0 0 0 0 0 0 0 0 0 0 0 0 0.002 
2324 6 0.00448495 0.0666614 -0.0238366 0 0 0 -0.906691 -1.29829 1.12201 0 -0.000164368 0 0 0 0 0 0 0 0 0 0 0 0 0 0 0 0 0 0 0.002 
1777 5 0.0117722 0.0444619 -0.0169277 0 0 0 1.53723 -1.70739 1.98155 0.000180939 0.0709818 0.0162935 0 0 0 0 1 0 0 0 0 0 0 0 0 0 0 0 93 0.002 
2310 7 0.00394086 0.0406151 -0.0169027 0 0 0 -0.0687669 -1.79883 0.462942 0 -0.000164368 0 0 0 0 0 0 0 0 0 0 0 0 0 0 0 0 0 0 0.002 
27 9 0.0112825 0.0406418 -0.0160598 0 0 0 0.644272 -1.95003 0.466695 -0.000180939 -0.0713106 -0.0162935 0 0 0 0 1 0 0 0 0 0 0 0 0 0 0 0 192 0.002 
2335 3 0.0186242 0.0569131 -0.0195271 0 0 0 0.547138 7.17707 -6.46719 0 -0.000164368 0 0 0 0 0 0 0 0 0 0 0 0 0 0 0 0 0 0 0.002 
2141 8 0.00817682 0.0720868 -0.0216887 0 0 0 -3.26383 -1.29239 -8.8575 0 -0.000164368 0 0 0 0 0 0 0 0 0 0 0 0 0 0 0 0 0 40 0.002 
191 2 0.0038817 0.0742091 -0.00898613 0 0 0 0.198166 -0.237187 -0.894109 0 -0.000164368 0 0 0 0 0 0 0 0 0 0 0 0 0 0 0 0 0 190 0.002 
2162 7 0.013544 0.0671943 -0.00828366 0 0 0 -0.798287 -1.37759 0.288503 0 -0.000164368 0 0 0 0 0 0 0 0 0 0 0 0 0 0 0 0 0 28 0.002 
190 5 0.0152144 0.0471405 -0.00194791 0 0 0 1.30821 8.36424 -12.4213 0 -0.000164368 0 0 0 0 0 0 0 0 0 0 0 0 0 0 0 0 0 162 0.002 
1981 1 0.00920871 0.0672814 0.0036664 0 0 0 -0.925275 -0.628232 -2.45345 0 -0.000164368 0 0 0 0 0 0 0 0 0 0 0 0 0 0 0 0 0 88 0.002 
605 8 0.0132388 0.0708021 0.00828622 0 0 0 0.766069 -1.25782 0.146401 0 -0.000164368 0 0 0 0 0 0 0 0 0 0 0 0 0 0 0 0 0 198 0.002 
2067 1 0.0182632 0.0729786 -0.0319005 0 0 0 -1.08202 -0.223983 0.278072 0 -0.000164368 0 0 0 0 0 0 0 0 0 0 0 0 0 0 0 0 0 54 0.002 
1551 2 0.0162207 0.0676457 -0.0325377 0 0 0 -15.9186 5.74985 3.70507 0 -0.000164368 0 0 0 0 0 0 0 0 0 0 0 0 0 0 0 0 0 81 0.002 
1671 3 0.0102231 0.0747078 -0.00935123 0 0 0 1.21673 -3.27354 3.47497 0 -0.000164368 0 0 0 0 0 0 0 0 0 0 0 0 0 0 0 0 0 86 0.002 
372 3 0.00546936 0.0392412 0.0108114 0 0 0 0.335225 -0.998538 1.17777 0 -0.000164368 0 0 0 0 0 0 0 0 0 0 0 0 0 0 0 0 0 186 0.002 
1352 5 0.00316191 0.0687875 0.0104237 0 0 0 -0.390947 -0.291548 -0.810743 0 -0.000164368 0 0 0 0 0 0 0 0 0 0 0 0 0 0 0 0 0 105 0.002 
903 3 0.00689952 0.0598445 0.0132712 0 0 0 -0.517973 -0.712508 -1.08809 0 -0.000164368 0 0 0 0 0 0 0 0 0 0 0 0 0 0 0 0 0 157 0.002 
251 5 0.00663495 0.0695194 0.0127114 0 0 0 0.145222 -0.0640349 -0.79259 0 -0.000164368 0 0 0 0 0 0 0 0 0 0 0 0 0 0 0 0 0 216 0.002 
627 1 0.00409096 0.0741012 0.0121563 0 0 0 -0.360836 -0.0796148 -0.225788 -0.0401633 -0.0244952 0.0206309 1 0 0 0 0 0 0 0 0 0 0 0 0 0 0 0 202 0.002 
811 6 0.00893151 0.0746736 0.0137231 0 0 0 -0.204571 -0.209804 -0.259257 0 -0.000164368 0 0 0 0 0 0 0 0 0 0 0 0 0 0 0 0 0 59 0.002 
657 1 0.00852249 0.0500464 0.0155479 0 0 0 -2.6592 -3.35516 -0.478172 0 -0.000164368 0 0 0 0 0 0 0 0 0 0 0 0 0 0 0 0 0 153 0.002 
1968 4 0.0102976 0.0646531 0.0156643 0 0 0 -1.35721 -0.420378 -0.399265 0 -0.000164368 0 0 0 0 0 0 0 0 0 0 0 0 0 0 0 0 0 82 0.002 
1388 4 0.00299448 0.0667704 0.0168816 0 0 0 0.0245367 2.52567 -1.36505 -0.0538649 0.112928 -0.0370471 0 0 0 1 0 0 0 0 0 0 0 0 0 0 0 0 161 0.002 
1966 2 0.00389607 0.071369 0.0167253 0 0 0 -0.066554 -0.22747 -0.209831 0 -0.000164368 0 0 0 0 0 0 0 0 0 0 0 0 0 0 0 0 0 71 0.002 
430 5 0.0184215 0.0720854 0.016561 0 0 0 -0.554525 0.0926075 -0.876443 0 -0.000164368 0 0 0 0 0 0 0 0 0 0 0 0 0 0 0 0 0 73 0.002 
512 2 0.00702084 0.0737612 0.0174681 0 0 0 -0.0786697 -0.163293 -0.0865434 0 -0.000164368 0 0 0 0 0 0 0 0 0 0 0 0 0 0 0 0 0 194 0.002 
1020 2 0.0120966 0.0735146 0.0166321 0 0 0 -0.92083 -0.0975957 -0.308346 0 -0.000164368 0 0 0 0 0 0 0 0 0 0 0 0 0 0 0 0 0 96 0.002 
306 5 0.00539483 0.0600238 0.0179711 0 0 0 -0.48652 2.43895 -5.40495 -0.000652154 0.00132592 0.000227012 0 0 0 0 1 0 0 0 0 0 0 0 0 0 0 0 196 0.002 
2134 10 0.00988967 0.0587381 0.0204278 0 0 0 -0.788804 0.108658 0.599422 0 -0.000164368 0 0 0 0 0 0 0 0 0 0 0 0 0 0 0 0 0 27 0.002 
670 1 0.00295975 0.0631467 0.0184389 0 0 0 1.19188 3.35918 -1.20976 0.0133092 -0.114328 0.0417838 0 0 0 1 1 0 0 0 0 0 0 0 0 0 0 0 189 0.002 
1204 5 0.00777011 0.0692907 0.0206494 0 0 0 0.148787 -0.155121 -0.165323 0 -0.000164368 0 0 0 0 0 0 0 0 0 0 0 0 0 0 0 0 0 168 0.002 
1070 2 0.00328166 0.0705367 0.0211155 0 0 0 0.0303444 -0.200474 -0.14076 0 -0.000164368 0 0 0 0 0 0 0 0 0 0 0 0 0 0 0 0 0 122 0.002 
1383 2 0.0134487 0.0735123 0.0204896 0 0 0 -0.168499 -0.167599 -0.411878 0 -0.000164368 0 0 0 0 0 0 0 0 0 0 0 0 0 0 0 0 0 147 0.002 
1158 2 0.00309981 0.0558144 0.0215331 0 0 0 0.117915 4.43962 -3.02083 -0.006489 0.0160254 0.000134161 0 1 0 0 0 0 0 0 0 0 0 0 0 0 0 0 100 0.002 
1776 5 0.00670065 0.0562816 0.0183649 0 0 0 -0.385422 2.1187 -6.36191 0.0004636 -0.000705288 -0.000128605 0 0 0 0 0 0 0 0 0 0 0 0 0 0 0 0 83 0.002 
791 3 0.0128846 0.0656619 0.022205 0 0 0 -0.997668 -1.08674 -0.474241 0 -0.000164368 0 0 0 0 0 0 0 0 0 0 0 0 0 0 0 0 0 159 0.002 
589 16 0.00675745 0.0735675 0.0218406 0 0 0 -0.0114497 -0.18892 -0.111705 0 -0.000164368 0 0 0 0 0 0 0 0 0 0 0 0 0 0 0 0 0 190 0.002 
1560 2 0.018047 0.0724105 0.021387 0 0 0 -0.785851 -0.672013 -0.124689 0 -0.000164368 0 0 0 0 0 0 0 0 0 0 0 0 0 0 0 0 0 107 0.002 
1887 7 0.0179361 0.0568789 0.0211711 0 0 0 1.58259 5.83535 -8.31209 0 -0.000164368 0 0 0 0 0 0 0 0 0 0 0 0 0 0 0 0 0 87 0.002 
2027 2 0.0166482 0.0624669 0.0251518 0 0 0 0.143086 -0.547998 -0.0955643 0 -0.000164368 0 0 0 0 0 0 0 0 0 0 0 0 0 0 0 0 0 57 0.002 
285 1 0.00457266 0.0635878 0.024698 0 0 0 0.0297464 -0.174246 0.0111482 0 -0.000164368 0 0 0 0 0 0 0 0 0 0 0 0 0 0 0 0 0 174 0.002 
1741 9 0.00911332 0.0668322 0.0247764 0 0 0 -0.0570153 -0.325428 -0.0401825 0 -0.000164368 0 0 0 0 0 0 0 0 0 0 0 0 0 0 0 0 0 110 0.002 
361 2 0.00303019 0.0678293 0.0243803 0 0 0 0.058177 -0.291051 -0.0123286 0 -0.000164368 0 0 0 0 0 0 0 0 0 0 0 0 0 0 0 0 0 175 0.002 
2018 8 0.00981994 0.0722223 0.0252696 0 0 0 -0.0479026 -0.222451 0.0239939 0 -0.000164368 0 0 0 0 0 0 0 0 0 0 0 0 0 0 0 0 0 63 0.002 
654 9 0.00309135 0.0729657 0.0255445 0 0 0 -0.0593758 -0.18854 -0.00231447 -0.00304922 -0.000333339 -8.8173e-05 0 0 0 0 0 0 0 0 2 0 0 0 0 0 0 0 198 0.002 
598 6 0.014056 0.0746136 0.0245681 0 0 0 -0.131247 0.658607 -0.312732 0 -0.000164368 0 0 0 0 0 0 0 0 0 0 0 0 0 0 0 0 0 182 0.002 
542 6 0.00403271 0.0524333 0.0231978 0 0 0 2.04926 0.336313 -6.29368 0.006489 -0.0163542 -0.000134161 0 1 0 0 0 0 0 0 0 0 0 0 0 0 0 0 135 0.002 
1969 13 0.0128023 0.0673058 0.0270062 0 0 0 -0.199825 -0.0336262 -0.0205817 0 -0.000164368 0 0 0 0 0 0 0 0 0 0 0 0 0 0 0 0 0 83 0.002 
1350 14 0.0061259 0.0696475 0.0262013 0 0 0 0.0362464 -0.259686 0.127649 0 -0.000164368 0 0 0 0 0 0 0 0 0 0 0 0 0 0 0 0 0 180 0.002 
2158 8 0.00665781 0.0746974 0.0260081 0 0 0 -0.0277416 -0.159853 -0.062157 0.0031712 -0.000114757 -0.000134367 0 0 0 0 0 0 0 0 1 0 0 0 0 0 0 0 34 0.002 
1329 5 0.00737505 0.0627572 0.0285763 0 0 0 -0.113472 -0.436552 0.254957 0 -0.000164368 0 0 0 0 0 0 0 0 0 0 0 0 0 0 0 0 0 125 0.002 
104 5 0.0113655 0.0627953 0.0290332 0 0 0 -0.026154 -0.404608 -0.0329781 0 -0.000164368 0 0 0 0 0 0 0 0 0 0 0 0 0 0 0 0 0 118 0.002 
1653 5 0.0157342 0.0612452 0.0295949 0 0 0 -0.0585808 -0.215941 -0.0398318 0.000486051 -5.38565e-05 -0.000227939 0 0 0 0 1 0 0 0 0 0 0 0 0 0 0 0 156 0.002 
1637 7 0.00311141 0.0645898 0.0284088 0 0 0 0.0240909 -0.215661 0.0370269 0 -0.000164368 0 0 0 0 0 0 0 0 0 0 0 0 0 0 0 0 0 114 0.002 
998 6 0.00550602 0.0677616 0.0302634 0 0 0 -0.220768 -0.0999506 0.099314 0.00610584 -0.00472912 -0.000655609 0 0 0 0 0 1 0 0 0 0 0 0 0 0 0 0 147 0.002 
587 9 0.00929948 0.0667223 0.0290592 0 0 0 -0.112833 -0.397995 0.0912293 0 -0.000164368 0 0 0 0 0 0 0 0 0 0 0 0 0 0 0 0 0 228 0.002 
2123 6 0.0169684 0.0659443 0.027937 0 0 0 -0.04515 -0.103574 -0.255292 0 -0.000164368 0 0 0 0 0 0 0 0 0 0 0 0 0 0 0 0 0 61 0.002 
1576 5 0.0168998 0.0700789 0.0293442 0 0 0 -0.0449473 -0.00853397 -0.062397 0 -0.000164368 0 0 0 0 0 0 0 0 0 0 0 0 0 0 0 0 0 142 0.002 
2101 3 0.00303059 0.0706205 0.0289828 0 0 0 -0.0259464 -0.0775088 0.0388714 -0.00610584 0.00440038 0.000655609 0 0 0 0 0 1 0 0 0 0 0 0 0 0 0 0 51 0.002 
2076 1 0.00673328 0.0721095 0.0296015 0 0 0 0.021414 -0.212014 -0.037366 0 -0.000164368 0 0 0 0 0 0 0 0 0 0 0 0 0 0 0 0 0 67 0.002 
1098 3 0.0108388 0.0729706 0.0290955 0 0 0 -0.0517687 -0.160871 0.0402197 6.61876e-05 -0.000682951 -0.000197057 0 0 1 0 0 0 0 0 0 0 0 0 0 0 0 0 151 0.002 
2063 1 0.0156443 0.0740792 0.0300159 0 0 0 0.357619 -0.131748 0.411574 0 -0.000164368 0 0 0 0 0 0 0 0 0 0 0 0 0 0 0 0 0 38 0.002 
1499 5 0.00412814 0.0567801 0.0318148 0 0 0 -0.104515 -0.723845 -0.248429 0 -0.000164368 0 0 0 0 0 0 0 0 0 0 0 0 0 0 0 0 0 63 0.002 
1645 1 0.00867283 0.0572273 0.0306843 0 0 0 -0.15584 -0.45698 -0.35721 0 -0.000164368 0 0 0 0 0 0 0 0 0 0 0 0 0 0 0 0 0 110 0.002 
1912 1 0.00469637 0.0643693 0.0322613 0 0 0 0.0406414 -0.143182 -0.0709227 0 -0.000164368 0 0 0 0 0 0 0 0 0 0 0 0 0 0 0 0 0 83 0.002 
1532 3 0.0166503 0.0659742 0.0323958 0 0 0 -0.168285 -0.303321 -0.170319 0 -0.000164368 0 0 0 0 0 0 0 0 0 0 0 0 0 0 0 0 0 85 0.002 
1967 3 0.0186221 0.0606731 0.0329922 0 0 0 -0.0165023 -0.30049 -0.0197799 0 -0.000164368 0 0 0 0 0 0 0 0 0 0 0 0 0 0 0 0 0 64 0.002 
1157 1 0.0130783 0.0613608 0.0325724 0 0 0 -0.137241 -0.0468152 0.00861111 -0.000486051 -0.00027488 0.000227939 0 0 0 0 1 0 0 0 0 0 0 0 0 0 0 0 72 0.002 
1260 7 0.00866136 0.0636615 0.0326668 0 0 0 0.0781407 -0.199467 -0.0453224 0 -0.000164368 0 0 0 0 0 0 0 0 0 0 0 0 0 0 0 0 0 132 0.002 
865 7 0.0106892 0.0673126 0.0327667 0 0 0 0.0392914 -0.209115 0.02944 0 -0.000164368 0 0 0 0 0 0 0 0 0 0 0 0 0 0 0 0 0 171 0.002 
1002 4 0.00308449 0.0697861 0.0329358 0 0 0 0.00844823 -0.257717 0.0265527 0 -0.000164368 0 0 0 0 0 0 0 0 0 0 0 0 0 0 0 0 0 144 0.002 
1773 7 0.00777012 0.0701059 0.0329256 0 0 0 0.0908798 -0.123994 -0.00247951 0 -0.000164368 0 0 0 0 0 0 0 0 0 0 0 0 0 0 0 0 0 76 0.002 
2070 3 0.0142505 0.0692782 0.0325313 0 0 0 0.0179973 -0.089418 0.0192685 0 -0.000164368 0 0 0 0 0 0 0 0 0 0 0 0 0 0 0 0 0 40 0.002 
273 2 0.0119715 0.0725622 0.0329587 0 0 0 -0.0401248 -0.16865 0.036786 0 -0.000164368 0 0 0 0 0 0 0 0 0 0 0 0 0 0 0 0 0 133 0.002 
517 2 0.00743865 0.0743257 0.0329983 0 0 0 -0.0476827 -0.207703 -0.00255028 0 -0.000164368 0 0 0 0 0 0 0 0 0 0 0 0 0 0 0 0 0 200 0.002 
2112 2 0.00346835 0.0481266 0.0318038 0 0 0 0.536233 4.99785 -6.82287 0 -0.000164368 0 0 0 0 0 0 0 0 0 0 0 0 0 0 0 0 0 57 0.002 
894 2 0.00344416 0.0414735 0.0353549 0 0 0 0.445856 6.00113 -5.86293 0 -0.000164368 0 0 0 0 0 0 0 0 0 0 0 0 0 0 0 0 0 164 0.002 
310 1 0.0167133 0.047201 0.0314817 0 0 0 0.209106 11.1943 -12.4503 0 -0.000164368 0 0 0 0 0 0 0 0 0 0 0 0 0 0 0 0 0 158 0.002 
1292 4 0.00775328 0.0498737 0.0302539 0 0 0 -16.4987 18.7104 -23.0155 0 -0.000164368 0 0 0 0 0 0 0 0 0 0 0 0 0 0 0 0 0 152 0.002 
157 4 0.00314458 0.0749216 0.0290318 0 0 0 0.0275018 -0.209281 0.00871775 -0.000149845 -6.49207e-05 -0.000125311 0 0 0 0 0 0 0 0 1 0 0 0 0 0 0 0 73 0.002 
1594 4 0.0184023 0.041099 0.0354433 0 0 0 -0.68138 14.6772 -17.2783 0 -0.000164368 0 0 0 0 0 0 0 0 0 0 0 0 0 0 0 0 0 64 0.002 
704 3 0.00298216 0.0778898 -0.0329791 0 0 0 -0.423644 0.571372 0.299187 0.0868468 -0.0427051 0.0087109 0 0 0 0 0 0 0 0 0 0 0 0 0 0 0 0 155 0.002 
2068 13 0.00307361 0.0820818 -0.0319929 0 0 0 0.357441 -0.395679 -0.0305245 0 -0.000164368 0 0 0 0 0 0 0 0 0 0 0 0 0 0 0 0 0 50 0.002 
2330 6 0.0163743 0.0831665 -0.032968 0 0 0 1.01304 -0.282381 -1.09816 0 -0.000164368 0 0 0 0 0 0 0 0 0 0 0 0 0 0 0 0 0 0 0.002 
796 1 0.00840501 0.0853528 -0.0326598 0 0 0 -1.21588 -0.214572 0.0814278 0.030502 -0.178608 -0.072254 1 0 0 0 0 0 0 0 0 0 0 0 0 0 0 0 168 0.002 
2108 9 0.00289969 0.086885 -0.032196 0 0 0 -1.10582 -0.24663 -0.736686 0.484788 0.290107 0.037561 0 0 0 0 0 0 0 0 1 0 0 0 0 0 0 0 63 0.002 
1901 1 0.00589186 0.0892089 -0.0331014 0 0 0 -1.60443 0.558908 0.803117 -0.00894332 -0.0284359 0.200763 0 0 0 0 0 0 0 0 1 0 0 0 0 0 0 0 70 0.002 
1445 3 0.00301371 0.0921373 -0.0328838 0 0 0 -0.715209 0.0713993 -0.0529764 -0.0244327 -0.00134254 -0.0246327 0 0 1 0 0 0 0 0 0 0 0 0 0 0 0 0 109 0.002 
1662 8 0.00957359 0.0921527 -0.0329733 0 0 0 -0.664421 -0.4931 0.266228 0 -0.000164368 0 0 0 0 0 0 0 0 0 0 0 0 0 0 0 0 0 73 0.002 
1958 12 0.00299784 0.0961645 -0.0330006 0 0 0 0.180688 0.195038 -0.162382 -0.0117355 0.00454731 0.00836658 0 0 0 0 0 0 0 0 0 0 0 0 0 0 0 0 77 0.002 
1941 5 0.0176083 0.0957444 -0.0330092 0 0 0 0.0302432 0.250463 0.126208 -0.000124715 -0.000766517 0.00122986 0 0 0 0 0 0 0 0 0 0 0 0 0 0 0 0 66 0.002 
520 1 0.00629479 0.0983324 -0.0323107 0 0 0 0.744058 -0.435546 -0.422926 -0.000613665 -0.00138599 0.00104123 1 0 0 0 0 0 0 0 0 0 0 0 0 0 0 0 170 0.002 
476 2 0.0101029 0.0962349 -0.0330062 0 0 0 0.513569 -0.267951 0.108499 -0.024906 0.000410566 -0.0203301 0 2 0 0 0 0 0 0 0 0 0 0 0 0 0 0 194 0.002 
197 4 0.00298216 0.100471 -0.0330132 0 0 0 0.284643 -0.0021839 0.168039 -0.00897056 -0.0361982 -0.0215537 0 0 0 2 0 0 0 0 0 0 0 0 0 0 0 0 144 0.002 
826 1 0.0101331 0.100242 -0.0324288 0 0 0 0.393685 0.028222 -0.0384506 0 -0.000164368 0 0 0 0 0 0 0 0 0 0 0 0 0 0 0 0 0 136 0.002 
1680 3 0.0147536 0.0987047 -0.0327723 0 0 0 0.0363231 -0.567376 -0.178491 -0.00113314 0.0030094 0.00140586 0 0 1 0 0 0 0 0 0 0 0 0 0 0 0 0 121 0.002 
1308 1 0.00658194 0.102361 -0.0330261 0 0 0 -0.0720404 0.211662 0.0629493 0.00186257 -0.00468633 0.0575897 0 0 0 0 0 0 0 0 0 0 0 0 0 0 0 0 119 0.002 
1216 2 0.0137455 0.102567 -0.033014 0 0 0 -0.03141 -0.422563 0.0704186 -0.000145813 0.00769805 -0.0136287 0 1 1 0 0 0 0 0 0 0 0 0 0 0 0 0 70 0.002 
58 4 0.0179222 0.101474 -0.0328906 0 0 0 0.0285819 -0.123154 -0.0219166 -0.000948815 0.000243098 -0.00110342 0 0 0 1 0 0 0 0 0 0 0 0 0 0 0 0 155 0.002 
529 6 0.00302796 0.104436 -0.0330408 0 0 0 -0.00369179 0.152624 0.0588975 0.00832847 -0.010488 0.00861567 0 0 0 1 0 2 0 0 0 0 0 0 0 0 0 0 151 0.002 
241 1 0.0101003 0.104247 -0.032998 0 0 0 0.358446 -0.381272 -0.0716151 -0.0230584 -0.0923485 -0.0125389 2 0 0 0 0 0 0 0 0 0 0 0 0 0 0 0 209 0.002 
214 4 0.00704297 0.107113 -0.0328651 0 0 0 0.0249818 -0.123195 -0.0858651 0 -0.000164368 0 0 0 0 0 0 0 0 0 0 0 0 0 0 0 0 0 184 0.002 
1495 4 0.0148268 0.106513 -0.0326521 0 0 0 -0.212007 -0.235904 0.275263 0 -0.000164368 0 0 0 0 0 0 0 0 0 0 0 0 0 0 0 0 0 106 0.002 
210 9 0.0110924 0.10804 -0.0327307 0 0 0 0.134193 -0.145659 0.0258295 -0.00159599 -0.0112044 0.00407877 1 0 0 0 0 0 0 0 0 0 0 0 0 0 0 0 104 0.002 
1973 9 0.0185452 0.108015 -0.0322064 0 0 0 -0.17883 -0.0445439 0.102937 0.00946256 -0.0246964 -0.00780484 0 0 0 0 0 0 0 0 0 0 0 0 0 0 0 0 43 0.002 
1607 7 0.0130462 0.107638 0.00835144 0 0 0 0.0264341 -0.0161049 0.172346 0 -0.000164368 0 0 0 0 0 0 0 0 0 0 0 0 0 0 0 0 0 82 0.002 
1480 5 0.0153939 0.0763843 -0.0309421 0 0 0 0.251394 0.0440727 1.06789 0 -0.000164368 0 0 0 0 0 0 0 0 0 0 0 0 0 0 0 0 0 86 0.002 
1987 8 0.00327767 0.0792329 -0.0289526 0 0 0 -0.816564 -0.472347 0.56054 0 -0.000164368 0 0 0 0 0 0 0 0 0 0 0 0 0 0 0 0 0 53 0.002 
121 8 0.00823672 0.0807248 -0.0313304 0 0 0 -0.278329 -0.689418 0.161006 0 -0.000164368 0 0 0 0 0 0 0 0 0 0 0 0 0 0 0 0 0 175 0.002 
1058 3 0.0112697 0.0789985 -0.0291368 0 0 0 -1.18891 -2.08774 1.21833 0 -0.000164368 0 0 0 0 0 0 0 0 0 0 0 0 0 0 0 0 0 151 0.002 
2093 7 0.00467433 0.0909721 -0.0294744 0 0 0 -0.627932 -0.571446 -0.276657 0.0244327 0.00101381 0.0246327 0 0 1 0 0 0 0 0 0 0 0 0 0 0 0 0 65 0.002 
1272 4 0.016632 0.0897041 -0.0287838 0 0 0 1.45895 -1.25129 2.93696 0 -0.000164368 0 0 0 0 0 0 0 0 0 0 0 0 0 0 0 0 0 118 0.002 
2308 8 0.00668641 0.0952846 -0.0297691 0 0 0 0.496052 -0.24932 0.156406 0.0147107 0.00118536 -0.00344418 1 0 0 0 0 0 0 3 0 0 0 0 0 0 0 0 6 0.002 
2296 9 0.013379 0.095181 -0.0310072 0 0 0 -0.133691 -0.153107 0.854912 0.0279158 0.000985222 0.00559748 0 1 0 0 0 0 0 0 0 0 0 0 0 0 0 0 9 0.002 
1943 1 0.0100137 0.0976695 -0.0293008 0 0 0 0.25986 -0.0279311 0.23352 0.00139252 -0.000275921 -0.0178125 2 1 0 0 0 0 0 0 0 0 0 0 0 0 0 0 63 0.002 
1913 2 0.0032658 0.102505 -0.0296285 0 0 0 -0.206703 0.196154 0.256902 -0.00439581 -0.0546253 0.0126599 0 3 0 1 0 1 0 0 0 0 0 0 0 0 0 0 59 0.002 
1166 7 0.0158497 0.102804 -0.0296603 0 0 0 0.104414 0.245567 0.0176752 -0.00569368 -0.0026019 0.00363599 0 1 0 0 0 0 1 0 0 0 0 0 0 0 0 0 163 0.002 
1956 4 0.0122077 0.10477 -0.0296454 0 0 0 -0.434396 0.0821908 0.0938463 0.0125257 -0.00159756 0.0054767 1 0 0 2 0 0 0 0 0 0 0 0 0 0 0 0 49 0.002 
1654 7 0.00571028 0.105648 -0.0293266 0 0 0 0.0340081 -0.0524193 0.0326329 -0.00341181 0.0105114 -1.27133e-05 0 1 0 0 0 0 1 0 0 0 0 0 0 0 0 0 90 0.002 
1417 4 0.00302956 0.10801 -0.0312979 0 0 0 0.116845 0.249394 0.00661166 0.00134152 -0.0213693 -0.0305319 0 0 0 0 0 1 0 0 0 0 0 0 0 0 0 0 82 0.002 
2064 6 0.0045782 0.0835897 -0.0279837 0 0 0 -1.21271 -1.24905 1.02848 0 -0.000164368 0 0 0 0 0 0 0 0 0 0 0 0 0 0 0 0 0 32 0.002 
2280 4 0.00955589 0.0886842 -0.0309668 0 0 0 -0.644686 1.482 -4.40624 -0.030502 0.178279 0.072254 1 0 0 0 0 0 0 0 0 0 0 0 0 0 0 0 4 0.002 
708 2 0.00866997 0.0920135 -0.0286193 0 0 0 0.117946 -0.798296 -0.521567 -0.000169268 1.62793e-05 3.07642e-05 0 0 0 0 0 0 0 1 0 0 0 0 0 0 0 0 157 0.002 
983 12 0.00297666 0.0945238 -0.0285926 0 0 0 0.123859 0.0705161 0.344568 0.0247814 0.00420934 0.00991807 0 0 0 0 0 0 0 1 0 0 0 0 0 0 0 0 160 0.002 
158 7 0.0140925 0.0943355 -0.0269186 0 0 0 1.0902 -0.124935 0.86603 0 -0.000164368 0 0 0 0 0 0 0 0 0 0 0 0 0 0 0 0 0 112 0.002 
2119 1 0.00312528 0.0985381 -0.0291363 0 0 0 -0.0221138 0.361238 0.129553 0.00566397 -0.00318809 0.00368822 0 1 0 0 0 0 0 0 0 0 0 0 0 0 0 0 52 0.002 
1056 1 0.0151621 0.0981662 -0.0286981 0 0 0 -0.479982 0.382116 0.196843 0.00241179 -0.0532311 -0.0740034 1 0 0 0 0 0 0 0 0 0 0 0 0 0 0 0 123 0.002 
602 8 0.00709997 0.101549 -0.0289397 0 0 0 -0.298256 0.624374 -0.266013 -0.0183236 -0.0515943 -0.0166909 0 0 0 0 0 0 0 2 0 0 0 0 0 0 0 0 204 0.002 
429 8 0.011214 0.101253 -0.0280561 0 0 0 0.112228 0.0752195 0.584197 0.00230341 0.00097117 -0.00165551 1 0 0 1 0 0 0 0 0 0 0 0 0 0 0 0 93 0.002 
168 2 0.00892138 0.104599 -0.0272042 0 0 0 -0.059999 0.156164 0.262516 0.0246809 0.0363389 0.0177118 0 1 0 0 0 0 1 1 0 0 0 0 0 0 0 0 121 0.002 
937 2 0.0184974 0.105705 -0.0288893 0 0 0 0.306516 0.341686 -0.058648 0.000507076 -0.00397596 -0.00324717 0 0 0 0 0 0 0 0 0 0 0 0 0 0 0 0 151 0.002 
1418 5 0.011136 0.10801 -0.0275858 0 0 0 -0.101964 0.117411 0.224399 0.00530569 -0.0194007 -0.0116349 0 0 0 1 0 0 0 0 0 0 0 0 0 0 0 0 110 0.002 
1122 3 0.0151154 0.107821 -0.0285744 0 0 0 -0.0264807 -0.061548 0.384768 0 -0.000164368 0 0 0 0 0 0 0 0 0 0 0 0 0 0 0 0 0 113 0.002 
1194 8 0.00317554 0.0902365 -0.0258373 0 0 0 -0.00861962 -0.409972 -0.0641682 -0.0139778 -0.00160168 -0.0323364 0 0 0 0 0 0 0 1 0 0 0 0 0 0 0 0 157 0.002 
1090 6 0.00792774 0.0893384 -0.0247454 0 0 0 0.113678 -0.045992 0.132162 0.000798755 -0.00056475 -0.000257176 0 0 0 0 0 1 0 0 0 0 0 0 0 0 0 0 128 0.002 
1568 8 0.00651625 0.0936101 -0.0256382 0 0 0 0.321489 -0.554389 0.0453064 0.000484006 -7.34184e-05 -0.00543839 0 0 0 0 0 0 0 2 0 0 0 0 0 0 0 0 111 0.002 
631 2 0.0101606 0.0952136 -0.0261937 0 0 0 0.189677 -0.310605 0.204422 -0.0118875 -0.00438501 0.0249778 1 1 0 0 0 0 0 0 0 0 0 0 0 0 0 0 191 0.002 
734 1 0.00300995 0.0978391 -0.024893 0 0 0 0.00368727 0.0216027 0.0613064 0 -0.000164368 0 0 0 0 0 0 0 0 0 0 0 0 0 0 0 0 0 135 0.002 
1049 6 0.00672076 0.0981229 -0.0269516 0 0 0 -0.55492 0.350358 -0.212714 0.00027338 -0.00561066 -0.0225387 0 0 0 0 0 1 0 2 0 0 0 0 0 0 0 0 137 0.002 
2012 4 0.0168275 0.0971252 -0.0251271 0 0 0 0.325257 -0.204978 0.25287 -0.00324107 -0.0492784 -0.00721766 0 0 0 2 0 0 0 0 0 0 0 0 0 0 0 0 67 0.002 
1176 4 0.0166385 0.100908 -0.0262652 0 0 0 0.492231 -0.244548 -0.266533 0.0170366 0.00431756 0.0519133 1 0 0 2 0 0 1 0 0 0 0 0 0 0 0 0 162 0.002 
804 4 0.00334668 0.104282 -0.0261376 0 0 0 0.144807 0.0946806 0.391638 0.00858454 -0.0265868 0.0355131 0 1 0 2 0 0 0 0 0 0 0 0 0 0 0 0 125 0.002 
1665 2 0.00299413 0.108033 -0.0250127 0 0 0 0.0154698 0.0459364 0.227237 -0.000523672 -0.00131114 0.0291996 0 0 0 1 0 0 0 0 0 0 0 0 0 0 0 0 99 0.002 
962 1 0.00707609 0.107967 -0.02612 0 0 0 -0.137554 -0.0333713 0.248885 -0.000820923 0.0116371 0.00103599 0 1 0 0 0 0 0 0 0 0 0 0 0 0 0 0 150 0.002 
2078 3 0.00774552 0.0772931 -0.0228262 0 0 0 0.994193 -0.812223 -0.247013 0 -0.000164368 0 0 0 0 0 0 0 0 0 0 0 0 0 0 0 0 0 41 0.002 
1862 7 0.00484675 0.0899012 -0.0222582 0 0 0 0.0329984 -0.129704 -0.00754083 0.00599396 0.00970577 0.00365203 0 0 0 0 0 1 1 1 0 0 0 0 0 0 0 0 63 0.002 
527 2 0.0118605 0.0900683 -0.0231708 0 0 0 0.412666 -0.965962 0.0603186 0.0411063 -0.0091582 -0.0934786 0 1 0 0 0 0 0 0 0 0 0 0 0 0 0 0 182 0.002 
852 7 0.00858321 0.0928047 -0.0223159 0 0 0 0.310255 -0.372706 0.0222659 -0.0284823 0.0292685 -0.00922559 0 0 0 0 0 0 1 1 0 0 0 0 0 0 0 0 159 0.002 
1765 6 0.00298533 0.0937471 -0.023805 0 0 0 0.118625 0.0140183 0.163983 0.0118438 -0.00661225 -0.0141522 0 0 0 0 0 1 0 1 0 0 0 0 0 0 0 0 106 0.002 
1756 5 0.0143031 0.094963 -0.0229059 0 0 0 0.232536 -0.0166999 0.0333669 -0.0030487 -0.00277124 0.00738248 0 0 0 1 1 0 0 0 0 0 0 0 0 0 0 0 94 0.002 
1885 9 0.00663345 0.0973346 -0.0230638 0 0 0 0.40989 0.477047 0.064072 -3.91046e-06 -0.00802685 -0.00776098 0 0 0 0 0 1 0 0 2 0 0 0 0 0 0 0 100 0.002 
2080 4 0.0108593 0.0980944 -0.0235086 0 0 0 -0.0539457 -0.327684 0.173901 0.00225756 -0.0148949 0.00382491 0 1 0 2 0 0 0 0 0 0 0 0 0 0 0 0 67 0.002 
930 3 0.00414813 0.101444 -0.0235024 0 0 0 0.556006 -0.115803 0.0612084 0.00849766 -0.0101633 0.0226287 0 0 1 1 0 0 0 0 0 0 0 0 0 0 0 0 158 0.002 
1582 8 0.00847657 0.101228 -0.0247442 0 0 0 -0.178977 0.327268 -0.408544 -0.00117524 -0.0141557 -0.00139971 0 0 0 0 0 0 0 1 0 0 0 0 0 0 0 0 105 0.002 
1570 7 0.0133154 0.101124 -0.0241717 0 0 0 0.573532 -0.723436 -0.177512 -0.0190078 0.00695895 0.0127771 0 0 0 2 0 0 1 0 0 0 0 0 0 0 0 0 116 0.002 
606 1 0.00809626 0.104921 -0.0232749 0 0 0 -0.534666 -0.229928 0.21549 0.00406612 -0.00804138 -0.00833648 3 0 0 0 0 0 0 1 0 0 0 0 0 0 0 0 174 0.002 
2216 2 0.0122842 0.104875 -0.0246694 0 0 0 0.324048 -0.369374 -0.697712 -0.00652772 -0.0102896 -0.00316076 0 1 0 0 0 0 1 0 0 0 0 0 0 0 0 0 12 0.002 
2229 3 0.0166348 0.105129 -0.0245592 0 0 0 0.154253 -0.0527554 -0.171404 -0.00842126 0.0192053 -0.0100906 0 0 0 0 0 0 0 0 0 0 0 0 0 0 0 0 16 0.002 
795 6 0.0105128 0.108049 -0.0232186 0 0 0 -0.253413 -0.247137 -0.17971 0.00553286 -0.00378207 -0.0103939 1 1 0 0 0 0 0 0 0 0 0 0 0 0 0 0 109 0.002 
931 3 0.0159546 0.0848464 -0.0239865 0 0 0 2.48843 7.87627 -4.88036 0 -0.000164368 0 0 0 0 0 0 0 0 0 0 0 0 0 0 0 0 0 167 0.002 
597 1 0.0100622 0.0856992 -0.0214473 0 0 0 0.684839 -0.394362 0.255846 0 -0.000164368 0 0 0 0 0 0 0 0 0 0 0 0 0 0 0 0 0 141 0.002 
1141 12 0.010338 0.0958355 -0.0202822 0 0 0 0.658741 -0.388724 0.0653303 -0.0174907 -0.0259191 0.0197467 0 0 0 1 0 0 0 0 0 0 0 0 0 0 0 0 189 0.002 
1152 9 0.0143731 0.0979355 -0.0202556 0 0 0 0.428175 -0.000604485 0.128363 0.00246584 -0.00851871 -0.00483757 0 0 0 0 1 0 0 0 1 0 0 0 0 0 0 0 166 0.002 
264 2 0.00748022 0.099613 -0.0199249 0 0 0 0.325043 0.298295 0.244776 0.00836124 0.001829 -0.0173028 0 3 0 0 0 0 0 0 1 0 0 0 0 0 0 0 178 0.002 
1255 3 0.00610726 0.107996 0.00977521 0 0 0 0.0427659 0.0016761 0.0573049 0.000125518 4.36753e-05 0.000312155 0 0 1 0 0 0 0 0 0 0 0 0 0 0 0 0 113 0.002 
1666 9 0.0107163 0.101738 -0.0208815 0 0 0 0.0683801 -0.0995804 0.163153 -0.000908452 0.0056996 0.00613856 0 1 0 0 0 0 0 0 1 0 0 0 0 0 0 0 112 0.002 
1557 3 0.0167987 0.102407 -0.0216547 0 0 0 0.0814467 0.305899 -0.0960225 -0.00439442 0.0362427 0.0129487 0 0 1 0 0 0 0 0 0 0 0 0 0 0 0 0 97 0.002 
948 4 0.00314843 0.105122 -0.0221683 0 0 0 -0.0813282 -0.0220015 -0.0424121 -0.0199051 -0.00863409 0.00460401 0 0 0 1 0 0 0 0 0 0 0 0 0 0 0 0 160 0.002 
1264 2 0.0062205 0.103558 -0.0200502 0 0 0 -0.254712 -0.116992 0.356021 -0.0110337 -0.0184597 0.00875063 1 2 0 0 0 0 0 0 0 0 0 0 0 0 0 0 148 0.002 
807 8 0.0132639 0.10478 -0.0206416 0 0 0 -0.0721825 -0.0112961 -0.247047 0.0197966 0.0152366 -0.00211456 0 0 0 0 0 0 0 0 1 0 0 0 0 0 0 0 194 0.002 
786 6 0.0186285 0.107864 -0.0210431 0 0 0 -0.00618723 0.801076 0.0165247 -0.0026478 -0.0014715 -0.001101 0 0 0 0 0 1 0 0 0 0 0 0 0 0 0 0 161 0.002 
793 2 0.00587492 0.108023 -0.0221502 0 0 0 -0.261941 -0.0176332 0.259099 0.00413869 -0.0351121 -0.00549757 1 0 0 1 0 0 0 0 0 0 0 0 0 0 0 0 157 0.002 
1592 3 0.0148688 0.107998 -0.0223995 0 0 0 -0.051446 -0.0611718 -0.324654 0.0026478 0.00114276 0.001101 0 0 0 0 0 1 0 0 0 0 0 0 0 0 0 0 131 0.002 
2337 2 0.0132557 0.0789107 -0.0228057 0 0 0 -2.18543 -1.54913 -8.41907 0 -0.000164368 0 0 0 0 0 0 0 0 0 0 0 0 0 0 0 0 0 0 0.002 
1399 5 0.010423 0.0790996 -0.0195659 0 0 0 2.3369 -1.68531 -0.848573 0 -0.000164368 0 0 0 0 0 0 0 0 0 0 0 0 0 0 0 0 0 132 0.002 
2090 4 0.00567109 0.0896615 -0.0183915 0 0 0 0.535266 0.29805 0.12976 0.00718513 -0.00819682 0.0289416 0 0 0 0 0 0 1 0 0 0 0 0 0 0 0 0 39 0.002 
1759 3 0.0103277 0.0905116 -0.0195843 0 0 0 0.532195 0.250931 0.126758 -0.00244411 -0.0602152 0.00594165 0 1 1 0 0 0 1 0 0 0 0 0 0 0 0 0 94 0.002 
1739 4 0.00300015 0.092694 -0.0199681 0 0 0 0.00143585 0.284903 0.210727 0.000846099 0.0038556 0.0204109 0 0 0 0 0 1 0 0 0 0 0 0 0 0 0 0 118 0.002 
813 1 0.0139663 0.0925282 -0.0195763 0 0 0 -0.398747 0.0337079 -0.315497 -0.0531098 -0.0102923 -0.0181795 1 0 0 0 0 0 0 0 0 0 0 0 0 0 0 0 170 0.002 