ITEM: TIMESTEP
18950000
ITEM: NUMBER OF ATOMS
2290
ITEM: BOX BOUNDS ff ff ff
-0.01 0.45
-0.15 0.15
-0.08 0.1
ITEM: ATOMS id type x y z ix iy iz vx vy vz fx fy fz c_cc_1 c_cc_2 c_cc_3 c_cc_4 c_cc_5 c_cc_6 c_cc_7 c_cc_8 c_cc_9 c_cc_10 c_cc_11 c_cc_12 c_cc_13 c_cc_14 c_cc_15 c_cc_16 f_fppacc radius 
1819 2 0.00657304 -0.0317113 -0.0484711 0 0 0 -0.160622 -10.4856 6.16827 -0.0182925 0.218813 0.295684 0 0 0 0 0 0 0 0 0 0 0 0 0 0 0 0 59 0.002 
1020 2 0.0105372 -0.0335525 -0.0438192 0 0 0 -0.264304 2.39997 21.8502 0 -0.000164368 0 0 0 0 0 0 0 0 0 0 0 0 0 0 0 0 0 97 0.002 
2075 1 0.00433874 7.95173e-05 0.0578447 0 0 0 4.118 41.009 1.6086 0 -0.000164368 0 0 0 0 0 0 0 0 0 0 0 0 0 0 0 0 0 43 0.002 
1714 4 0.00578309 -0.0173115 0.0481912 0 0 0 2.31684 11.1683 1.84323 0 -0.000164368 0 0 0 0 0 0 0 0 0 0 0 0 0 0 0 0 0 72 0.002 
1347 3 0.0143992 0.016626 -0.052766 0 0 0 0.516298 -4.77888 -14.9738 0 -0.000164368 0 0 0 0 0 0 0 0 0 0 0 0 0 0 0 0 0 146 0.002 
1808 5 0.0165398 0.0273375 0.0323504 0 0 0 0.30832 -1.12509 1.091 0 -0.000164368 0 0 0 0 0 0 0 0 0 0 0 0 0 0 0 0 0 55 0.002 
581 5 0.016918 0.013262 0.0564276 0 0 0 -5.05148 30.8436 -7.55958 0.161372 -0.452001 -1.14654 0 0 0 0 0 0 0 0 0 0 0 0 0 0 0 0 180 0.002 
1772 5 0.0048232 0.00565835 0.033095 0 0 0 1.36017 28.9304 4.10482 0 -0.000164368 0 0 0 0 0 0 0 0 0 0 0 0 0 0 0 0 0 91 0.002 
665 4 0.0179948 0.0513015 -0.0355039 0 0 0 -1.34237e-15 -3.71047e-15 4.57797e-14 8.32667e-17 1.11022e-16 0 0 0 0 2 0 0 0 0 0 0 0 0 0 0 0 0 282 0.002 
393 1 0.013745 0.0541009 -0.0355 0 0 0 2.97926e-85 2.63884e-19 5.56991e-13 8.81219e-86 -1.35525e-20 0 0 0 0 0 0 0 0 0 0 0 0 0 0 0 0 0 1 0.002 
1145 2 0.0126121 0.0650933 -0.0355 0 0 0 -4.26027e-09 -1.99486e-07 2.70149e-07 3.74403e-07 7.85772e-07 -1.03729e-07 0 0 0 0 0 0 0 0 0 0 0 0 0 0 0 0 4 0.002 
465 6 0.0169561 0.0642926 -0.0355038 0 0 0 1.12697e-15 -1.11149e-15 1.68485e-12 0 0 0 0 0 0 0 0 1 0 0 0 0 0 0 0 0 0 0 26 0.002 
1080 3 0.00549171 0.0464532 -0.0337868 0 0 0 0.107835 -0.542396 -0.330596 0 -0.000164368 0 0 0 0 0 0 0 0 0 0 0 0 0 0 0 0 0 173 0.002 
130 3 0.00498234 0.0430168 -0.0290037 0 0 0 -0.523177 -6.20153 0.83471 0 -0.000164368 0 0 0 0 0 0 0 0 0 0 0 0 0 0 0 0 0 183 0.002 
1775 3 0.0104685 0.0541027 -0.0308949 0 0 0 -0.373518 -2.47413 0.856388 0 -0.000164368 0 0 0 0 0 0 0 0 0 0 0 0 0 0 0 0 0 62 0.002 
1980 13 0.00737656 0.0683604 -0.02719 0 0 0 -6.06587 0.708309 6.98592 0.575483 -0.4587 -0.807384 0 0 0 0 0 0 0 0 0 0 0 0 1 0 0 0 35 0.002 
1278 4 0.00628081 0.0711902 -0.0311937 0 0 0 0.427907 -1.64924 0.417899 0 -0.000164368 0 0 0 0 0 0 0 0 0 0 0 0 0 0 0 0 0 126 0.002 
1753 5 0.0134062 0.0731463 -0.0318365 0 0 0 1.76727 -1.05256 -3.58526 0 -0.000164368 0 0 0 0 0 0 0 0 0 0 0 0 0 0 0 0 0 95 0.002 
1625 3 0.00648606 0.0392699 -0.0281756 0 0 0 0.230486 -1.00902 -0.0545994 0 -0.000164368 0 0 0 0 0 0 0 0 0 0 0 0 0 0 0 0 0 98 0.002 
80 1 0.0033824 0.069219 -0.0270087 0 0 0 0.162481 -1.46885 0.614713 0 -0.000164368 0 0 0 0 0 0 0 0 0 0 0 0 0 0 0 0 0 84 0.002 
918 8 0.0069577 0.0706753 -0.0241834 0 0 0 -0.322605 -1.35359 1.58212 -0.575483 0.458372 0.807384 0 0 0 0 0 0 0 0 0 0 0 0 1 0 0 0 202 0.002 
2353 7 0.0029932 0.073003 -0.0224588 0 0 0 -0.513945 -0.245762 -0.214525 0.056038 0.102055 0.0393557 0 0 0 0 0 0 0 0 0 0 0 0 0 0 0 0 0 0.002 
1763 2 0.00479533 0.0425432 -0.021949 0 0 0 -1.41292 -1.41036 -0.123562 0 -0.000164368 0 0 0 0 0 0 0 0 0 0 0 0 0 0 0 0 0 70 0.002 
974 12 0.00937461 0.0441082 -0.0213679 0 0 0 -0.441344 -1.03577 1.1772 0 -0.000164368 0 0 0 0 0 0 0 0 0 0 0 0 0 0 0 0 0 164 0.002 
697 4 0.0175611 0.0489779 -0.0204708 0 0 0 1.38202 -3.4974 2.25685 0 -0.000164368 0 0 0 0 0 0 0 0 0 0 0 0 0 0 0 0 0 132 0.002 
361 2 0.00740073 0.063113 -0.0207066 0 0 0 0.566749 -0.900717 -0.976534 0 -0.000164368 0 0 0 0 0 0 0 0 0 0 0 0 0 0 0 0 0 176 0.002 
1070 2 0.0119268 0.0748291 -0.0240275 0 0 0 -0.55491 -1.37934 -0.621949 -0.0352395 -0.0768892 0.0733257 0 1 0 0 0 0 0 0 0 0 0 0 0 0 0 0 126 0.002 
2363 4 0.00329867 0.0641549 -0.017743 0 0 0 -0.186612 -2.42977 -1.4057 0 -0.000164368 0 0 0 0 0 0 0 0 0 0 0 0 0 0 0 0 0 0 0.002 
1932 1 0.00936204 0.0595261 -0.0142427 0 0 0 1.01895 -2.66944 0.422814 0 -0.000164368 0 0 0 0 0 0 0 0 0 0 0 0 0 0 0 0 0 53 0.002 
2357 1 0.0169297 0.067938 -0.0183008 0 0 0 0.675976 -3.86863 -3.89199 0 -0.000164368 0 0 0 0 0 0 0 0 0 0 0 0 0 0 0 0 0 0 0.002 
1528 5 0.00452683 0.0661105 -0.00243438 0 0 0 0.737439 -0.538858 1.23839 0 -0.000164368 0 0 0 0 0 0 0 0 0 0 0 0 0 0 0 0 0 107 0.002 
1845 4 0.0058834 0.0736444 0.0074337 0 0 0 -6.11904 3.64516 0.61914 0 -0.000164368 0 0 0 0 0 0 0 0 0 0 0 0 0 0 0 0 0 102 0.002 
1873 4 0.0184288 0.074648 -0.0225534 0 0 0 0.0274465 -1.14919 0.297833 0 -0.000164368 0 0 0 0 0 0 0 0 0 0 0 0 0 0 0 0 0 37 0.002 
1683 4 0.00345362 0.0724687 0.0118997 0 0 0 0.0586158 0.236954 -0.393705 0 -0.000164368 0 0 0 0 0 0 0 0 0 0 0 0 0 0 0 0 0 145 0.002 
166 4 0.0131791 0.0729341 0.0104543 0 0 0 -0.315005 0.381824 -0.762041 0 -0.000164368 0 0 0 0 0 0 0 0 0 0 0 0 0 0 0 0 0 223 0.002 
1300 5 0.0153174 0.0669255 0.0137319 0 0 0 -0.2665 -0.117528 -0.426643 0 -0.000164368 0 0 0 0 0 0 0 0 0 0 0 0 0 0 0 0 0 155 0.002 
2101 3 0.00980627 0.0704972 0.0163458 0 0 0 -0.164301 0.379107 -0.594614 0 -0.000164368 0 0 0 0 0 0 0 0 0 0 0 0 0 0 0 0 0 53 0.002 
1785 4 0.0166512 0.071443 0.014663 0 0 0 -0.661688 -0.0714979 -0.907363 0 -0.000164368 0 0 0 0 0 0 0 0 0 0 0 0 0 0 0 0 0 79 0.002 
1912 1 0.0126824 0.0731478 0.0152526 0 0 0 0.139077 0.223639 -0.175649 -0.00108524 -0.0153021 -0.00243063 0 0 0 0 0 0 0 0 0 0 0 0 0 0 0 0 84 0.002 
1955 2 0.0034642 0.0431143 0.0195653 0 0 0 -1.50105 -2.3398 3.36302 0 -0.000164368 0 0 0 0 0 0 0 0 0 0 0 0 0 0 0 0 0 56 0.002 
1563 7 0.0172133 0.0686076 0.0175704 0 0 0 -0.499104 -0.224908 -0.652289 0 -0.000164368 0 0 0 0 0 0 0 0 0 0 0 0 0 0 0 0 0 67 0.002 
917 8 0.0147699 0.0716223 0.0187489 0 0 0 -0.37705 0.152896 -0.231165 -0.00140142 -0.0044412 -0.0140141 0 0 0 0 0 0 0 1 0 0 0 0 0 0 0 0 206 0.002 
1260 7 0.0038349 0.0581729 0.0211273 0 0 0 -0.460305 -0.689904 -0.108423 0 -0.000164368 0 0 0 0 0 0 0 0 0 0 0 0 0 0 0 0 0 132 0.002 
273 2 0.00863624 0.0669438 0.0210984 0 0 0 -0.974792 0.150119 0.0829428 0 -0.000164368 0 0 0 0 0 0 0 0 0 0 0 0 0 0 0 0 0 135 0.002 
1098 3 0.0146058 0.0664759 0.0200123 0 0 0 -0.599944 -0.0416727 0.137755 0 -0.000164368 0 0 0 0 0 0 0 0 0 0 0 0 0 0 0 0 0 151 0.002 
1618 1 0.00990579 0.0605337 0.0229076 0 0 0 -0.036359 -0.367931 -0.280539 0 -0.000164368 0 0 0 0 0 0 0 0 0 0 0 0 0 0 0 0 0 90 0.002 
1667 1 0.00380465 0.0688837 0.0219478 0 0 0 0.107217 -0.359705 0.034883 0 -0.000164368 0 0 0 0 0 0 0 0 0 0 0 0 0 0 0 0 0 80 0.002 
1962 3 0.0172563 0.0701718 0.0217228 0 0 0 -0.0709507 -0.176877 -0.184294 0 -0.000164368 0 0 0 0 0 0 0 0 0 0 0 0 0 0 0 0 0 65 0.002 
816 10 0.00996462 0.0705414 0.0226028 0 0 0 -0.217818 0.153317 -0.0543087 0 -0.000164368 0 0 0 0 0 0 0 0 0 0 0 0 0 0 0 0 0 215 0.002 
2103 5 0.00317269 0.0739327 0.0215609 0 0 0 0.0187339 -0.10665 -0.0574301 0 -0.000164368 0 0 0 0 0 0 0 0 0 0 0 0 0 0 0 0 0 54 0.002 
2069 3 0.0107078 0.0745375 0.0229019 0 0 0 0.0660528 0.0913016 0.151885 0 -0.000164368 0 0 0 0 0 0 0 0 0 0 0 0 0 0 0 0 0 50 0.002 
425 5 0.0147036 0.0736664 0.0221645 0 0 0 0.00729851 -0.0914318 -0.071643 0.00140142 0.00411247 0.0140141 0 0 0 0 0 0 0 1 0 0 0 0 0 0 0 0 172 0.002 
2271 5 0.00507117 0.0580015 0.0256382 0 0 0 0.234832 -0.306631 -0.166346 0 -0.000164368 0 0 0 0 0 0 0 0 0 0 0 0 0 0 0 0 0 1 0.002 
157 4 0.00304319 0.0630872 0.0243351 0 0 0 -0.00559586 -0.1914 -0.119289 0 -0.000164368 0 0 0 0 0 0 0 0 0 0 0 0 0 0 0 0 0 73 0.002 
1513 3 0.0101534 0.0652592 0.0253689 0 0 0 -0.0220986 -0.317823 -0.0552867 0 -0.000164368 0 0 0 0 0 0 0 0 0 0 0 0 0 0 0 0 0 112 0.002 
519 4 0.0139569 0.0672604 0.0246197 0 0 0 -0.116681 -0.306271 0.10031 0 -0.000164368 0 0 0 0 0 0 0 0 0 0 0 0 0 0 0 0 0 131 0.002 
2126 3 0.00677844 0.0683755 0.0246495 0 0 0 -0.003097 -0.352363 0.137757 0 -0.000164368 0 0 0 0 0 0 0 0 0 0 0 0 0 0 0 0 0 54 0.002 
1782 11 0.0128262 0.0712405 0.0256846 0 0 0 -0.0960968 -0.183622 -0.0671358 0 -0.000164368 0 0 0 0 0 0 0 0 0 0 0 0 0 0 0 0 0 102 0.002 
2228 13 0.0167876 0.0718341 0.0254011 0 0 0 -0.0659054 -0.177318 -0.204115 0 -0.000164368 0 0 0 0 0 0 0 0 0 0 0 0 0 0 0 0 0 33 0.002 
502 2 0.00691662 0.072947 0.0240782 0 0 0 0.0358035 -0.247939 0.0839467 0 -0.000164368 0 0 0 0 0 0 0 0 0 0 0 0 0 0 0 0 0 164 0.002 
517 2 0.00645647 0.0647076 0.0268973 0 0 0 -0.00789014 -0.374533 0.0891161 0 -0.000164368 0 0 0 0 0 0 0 0 0 0 0 0 0 0 0 0 0 203 0.002 
1401 2 0.0183114 0.0674522 0.0257797 0 0 0 0.00622671 -0.27363 -0.0143269 0 -0.000164368 0 0 0 0 0 0 0 0 0 0 0 0 0 0 0 0 0 153 0.002 
1541 1 0.00307782 0.0697243 0.0258138 0 0 0 -0.0118492 -0.0996781 0.0047604 0 -0.000164368 0 0 0 0 0 0 0 0 0 0 0 0 0 0 0 0 0 122 0.002 
1721 2 0.00853465 0.0708291 0.0272757 0 0 0 0.0255987 -0.18825 -0.0161054 0 -0.000164368 0 0 0 0 0 0 0 0 0 0 0 0 0 0 0 0 0 92 0.002 
625 7 0.00357537 0.0742409 0.025931 0 0 0 -0.00274284 -0.234643 0.0616509 0 -0.000164368 0 0 0 0 0 0 0 0 0 0 0 0 0 0 0 0 0 140 0.002 
1722 2 0.0106402 0.0743468 0.0269508 0 0 0 -0.0540261 -0.130965 0.0483205 0 -0.000164368 0 0 0 0 0 0 0 0 0 0 0 0 0 0 0 0 0 64 0.002 
2063 1 0.0130369 0.0561799 0.0285643 0 0 0 -0.0901353 -0.517171 -0.0970313 0 -0.000164368 0 0 0 0 0 0 0 0 0 0 0 0 0 0 0 0 0 39 0.002 
2045 3 0.0170668 0.0579512 0.0287052 0 0 0 -0.266351 -0.186865 -0.422083 0 -0.000164368 0 0 0 0 0 0 0 0 0 0 0 0 0 0 0 0 0 44 0.002 
998 6 0.00600486 0.0610135 0.0283976 0 0 0 -0.00220156 -0.43433 0.0083602 0 -0.000164368 0 0 0 0 0 0 0 0 0 0 0 0 0 0 0 0 0 153 0.002 
1805 4 0.00304983 0.0641334 0.0289237 0 0 0 -0.00133931 -0.373167 0.0429218 0 -0.000164368 0 0 0 0 0 0 0 0 0 0 0 0 0 0 0 0 0 102 0.002 
1284 3 0.0157379 0.0653732 0.0286805 0 0 0 -0.854572 -0.235816 -0.0655009 0.00995328 -0.0255016 -0.0159637 0 0 2 0 0 0 0 0 0 0 0 0 0 0 0 0 174 0.002 
2196 9 0.011775 0.0670426 0.0286204 0 0 0 -0.0585398 -0.299244 -0.108307 0 -0.000164368 0 0 0 0 0 0 0 0 0 0 0 0 0 0 0 0 0 53 0.002 
2111 2 0.00549528 0.0678748 0.030149 0 0 0 -0.0826972 -0.329655 0.0285947 0 -0.000164368 0 0 0 0 0 0 0 0 0 0 0 0 0 0 0 0 0 47 0.002 
1487 2 0.00320899 0.0713827 0.0295351 0 0 0 0.0322103 -0.190082 0.0794695 0 -0.000164368 0 0 0 0 0 0 0 0 0 0 0 0 0 0 0 0 0 119 0.002 
1297 9 0.0134217 0.0724575 0.029499 0 0 0 0.014428 -0.148427 -0.0333372 -0.0118294 0.0180948 0.0116618 0 0 0 0 0 0 0 0 4 0 0 0 0 0 0 0 115 0.002 
1505 2 0.00677753 0.0739484 0.0293337 0 0 0 -0.00824896 -0.1207 0.00442851 -0.000605602 0.000156689 -0.000414202 0 1 0 0 0 0 0 0 0 0 0 0 0 0 0 0 110 0.002 
61 4 0.0169131 0.0744027 0.0294337 0 0 0 0.00218902 -0.13164 -0.00837766 0.000603688 0.00058775 -0.000270052 0 0 0 1 0 0 0 0 1 0 0 0 0 0 0 0 160 0.002 
1773 7 0.0121879 0.0534864 0.0321023 0 0 0 -0.12324 -0.444078 -0.0756956 0 -0.000164368 0 0 0 0 0 0 0 0 0 0 0 0 0 0 0 0 0 78 0.002 
1002 4 0.00460766 0.0570832 0.0311265 0 0 0 0.0671587 -0.411083 -0.0426906 0 -0.000164368 0 0 0 0 0 0 0 0 0 0 0 0 0 0 0 0 0 147 0.002 
233 7 0.0162672 0.0617107 0.0303565 0 0 0 -0.00252877 -0.141009 -0.00832898 0 -0.000164368 0 0 0 0 0 0 0 0 0 0 0 0 0 0 0 0 0 111 0.002 
1268 3 0.007011 0.0631065 0.0317782 0 0 0 0.00573513 -0.370796 -0.0539577 -0.000643762 -0.000582219 0.000361039 0 0 1 0 0 0 0 0 0 0 0 0 0 0 0 0 83 0.002 
1535 4 0.0108483 0.0635705 0.0307571 0 0 0 -0.00168132 -0.334905 -0.0379084 0.000643762 0.000253483 -0.000361039 0 0 1 0 0 0 0 0 0 0 0 0 0 0 0 0 148 0.002 
600 6 0.0149197 0.0688611 0.0303625 0 0 0 -0.324963 0.148912 0.0861056 0.0305076 -0.01959 -0.0235999 0 0 1 0 0 1 0 0 1 0 0 0 0 0 0 0 228 0.002 
1411 4 0.00975394 0.0718333 0.0309561 0 0 0 0.0149514 -0.146047 -0.0126617 -0.00468966 0.00332234 -0.000200866 0 1 0 1 0 0 0 0 1 0 0 0 0 0 0 0 167 0.002 
783 1 0.0183197 0.0705869 0.0316979 0 0 0 -0.0877646 -0.226516 -0.0485931 0 -0.000164368 0 0 0 0 0 0 0 0 0 0 0 0 0 0 0 0 0 153 0.002 
380 4 0.0030317 0.0639136 0.0329274 0 0 0 0.000359516 -0.26871 0.0570947 0 -0.000164368 0 0 0 0 0 0 0 0 0 0 0 0 0 0 0 0 0 144 0.002 
1059 2 0.0141857 0.0641451 0.0329574 0 0 0 -0.024954 -0.167988 -0.00645451 0 -0.000164368 0 0 0 0 0 0 0 0 0 0 0 0 0 0 0 0 0 141 0.002 
1462 2 0.00824409 0.0671415 0.032978 0 0 0 -0.0386789 -0.319545 -0.00374096 0 -0.000164368 0 0 0 0 0 0 0 0 0 0 0 0 0 0 0 0 0 84 0.002 
1053 1 0.0174505 0.0665689 0.0328651 0 0 0 0.0374024 -0.250392 0.0259692 0 -0.000164368 0 0 0 0 0 0 0 0 0 0 0 0 0 0 0 0 0 145 0.002 
1929 3 0.00299869 0.0693062 0.033 0 0 0 0.00227488 -0.151492 -3.06851e-05 4.36528e-05 4.91837e-05 0.000134382 0 0 1 0 0 0 0 0 0 0 0 0 0 0 0 0 43 0.002 
300 1 0.0119797 0.0692236 0.033003 0 0 0 -0.129942 -0.0677776 0.11426 -0.00910989 0.0235559 0.0171806 0 0 0 1 0 1 0 0 0 0 0 0 0 0 0 0 162 0.002 
1387 4 0.00631446 0.071539 0.0329724 0 0 0 0.00229931 -0.142372 -0.0172981 0.000263367 -8.80976e-05 0.000138323 0 0 1 0 0 0 0 0 0 0 0 0 0 0 0 0 143 0.002 
620 6 0.00305438 0.0744437 0.0329766 0 0 0 0.0110634 -0.137268 -0.00148163 0 -0.000164368 0 0 0 0 0 0 0 0 0 0 0 0 0 0 0 0 0 186 0.002 
398 3 0.0115574 0.0748926 0.0329884 0 0 0 0.0050983 -0.108844 -0.00476192 0 -0.000164368 0 0 0 0 0 0 0 0 0 0 0 0 0 0 0 0 0 189 0.002 
854 6 0.0153031 0.0728706 0.0330013 0 0 0 -0.0153413 -0.110238 -0.0169423 -0.000139652 0.00138208 0.000934694 0 0 0 0 0 0 0 0 1 0 0 0 0 0 0 0 136 0.002 
1292 4 0.00596491 0.0797671 -0.0327722 0 0 0 0.121383 -1.09525 0.51546 0 -0.000164368 0 0 0 0 0 0 0 0 0 0 0 0 0 0 0 0 0 152 0.002 
288 6 0.0122348 0.079713 -0.0330369 0 0 0 0.0993108 -0.676748 0.38996 -0.00915608 -0.015362 0.0557821 0 0 0 0 0 0 0 0 0 0 0 0 0 0 0 0 184 0.002 
718 2 0.00889311 0.0829853 -0.0328873 0 0 0 0.866601 -0.405017 -2.161 0 -0.000164368 0 0 0 0 0 0 0 0 0 0 0 0 0 0 0 0 0 159 0.002 
2068 13 0.00318263 0.084444 -0.032957 0 0 0 0.254683 -0.634526 0.415067 0 -0.000164368 0 0 0 0 0 0 0 0 0 0 0 0 0 0 0 0 0 50 0.002 
1681 3 0.00338739 0.0888193 -0.0329522 0 0 0 0.0522466 -0.119774 -0.192015 0 -0.000164368 0 0 0 0 0 0 0 0 0 0 0 0 0 0 0 0 0 98 0.002 
965 2 0.00696234 0.0867794 -0.0329373 0 0 0 0.301951 0.0695081 0.250078 -0.00285416 -0.00547018 -0.000724805 0 1 0 0 0 0 0 0 0 0 0 0 0 0 0 0 153 0.002 
899 1 0.0121389 0.0882095 -0.0329757 0 0 0 -0.61818 -0.192215 -0.0324888 0.0301342 -0.0107687 -0.0513576 3 0 0 0 0 0 0 0 0 0 0 0 0 0 0 0 173 0.002 
1471 6 0.0159596 0.0870619 -0.0328425 0 0 0 -0.506399 -0.0405314 0.184318 0.00125896 -0.000911147 -0.000558008 1 0 0 0 0 0 0 0 0 0 0 0 0 0 0 0 138 0.002 
814 6 0.00716236 0.090769 -0.0330119 0 0 0 -0.276544 -0.00812082 -0.00579139 0.0138389 0.00463383 0.00863654 0 1 0 0 0 2 0 0 0 0 0 0 0 0 0 0 201 0.002 
2112 2 0.00301493 0.0928629 -0.0328922 0 0 0 0.0824822 0.0260958 -0.108035 0.00109798 -0.00630247 6.6878e-05 0 1 0 0 0 0 0 0 0 0 0 0 0 0 0 0 62 0.002 
1082 4 0.0109548 0.0920019 -0.0330052 0 0 0 -0.305247 0.0835604 -0.000639388 0.00123914 0.00501364 0.00590557 1 0 0 1 0 1 0 0 0 0 0 0 0 0 0 0 153 0.002 
1499 5 0.0182808 0.0935177 -0.0329953 0 0 0 -0.168695 0.134556 0.000161789 0.00572614 -0.0050821 0.00207209 0 0 0 0 4 0 0 0 0 0 0 0 0 0 0 0 68 0.002 
704 3 0.007412 0.0947617 -0.0329902 0 0 0 0.074833 0.0529859 0.00665823 0 -0.000164368 0 0 0 0 0 0 0 0 0 0 0 0 0 0 0 0 0 159 0.002 
2115 3 0.0143418 0.0941032 -0.0329575 0 0 0 -0.197364 -0.0128172 0.0695509 0.00425743 -0.00832233 0.000215615 0 0 1 1 1 0 0 0 0 0 0 0 0 0 0 0 69 0.002 
2318 7 0.0029919 0.0968508 -0.0329945 0 0 0 0.00691789 0.029021 -0.0168945 0.00143753 -0.0012367 -0.00028607 0 1 0 0 0 0 1 0 0 0 0 0 0 0 0 0 8 0.002 
796 1 0.0120004 0.0973131 -0.0329213 0 0 0 -0.184235 0.0476471 0.0166811 0.00338576 -0.00611631 0.000433997 0 0 1 0 0 0 0 0 0 0 0 0 0 0 0 0 173 0.002 
1335 15 0.0160555 0.0978132 -0.0330014 0 0 0 -0.0435155 -0.0504926 -0.033789 -0.00128214 -0.000873282 0.00328518 0 0 0 0 0 0 0 0 0 0 0 0 0 0 1 0 169 0.002 
1901 1 0.00642584 0.0988572 -0.0327561 0 0 0 -0.0198453 0.129644 -0.0121676 -0.00308244 0.00115015 0.000770097 2 0 0 0 0 0 1 0 0 0 0 0 0 0 0 0 76 0.002 
520 1 0.00995343 0.100708 -0.0327957 0 0 0 -0.0824859 0.230211 0.000511843 -0.00591806 -0.00179645 -0.00341548 2 0 0 0 0 0 0 0 0 0 0 0 0 0 0 0 176 0.002 
1445 3 0.0029987 0.101134 -0.0327024 0 0 0 -0.0133187 -0.017183 -0.00587589 -0.00416108 0.00117832 0.000261062 0 0 1 0 0 0 0 0 0 0 0 0 0 0 0 0 115 0.002 
1958 12 0.0065972 0.102847 -0.032954 0 0 0 -0.185752 0.213709 0.0208255 -0.00292243 -0.000960129 -0.00078715 2 0 1 0 0 0 0 0 0 0 0 0 0 0 0 0 86 0.002 
1680 3 0.0139123 0.101201 -0.0330033 0 0 0 -0.033066 -0.0378861 0.00282853 -0.00316426 -0.000759769 -0.000336711 1 0 1 0 0 0 0 0 0 0 0 0 0 0 0 0 128 0.002 
529 6 0.00304457 0.105335 -0.033001 0 0 0 0.027074 0.0409114 -0.00349253 -8.07994e-05 0.000307456 -6.23474e-05 0 0 0 0 0 1 0 0 0 0 0 0 0 0 0 0 155 0.002 
241 1 0.0101666 0.104667 -0.0329617 0 0 0 -0.0650476 0.252082 -0.0165002 0.00297272 -0.000382691 -0.00703478 2 0 0 0 0 0 0 0 0 0 0 0 0 0 0 0 214 0.002 
58 4 0.0169656 0.103767 -0.032892 0 0 0 -0.0584582 -0.00388075 -0.135983 -0.0015937 -0.00836134 -0.000684116 0 0 1 2 0 0 0 0 0 0 0 0 0 0 0 0 165 0.002 
214 4 0.00713795 0.107614 -0.0330015 0 0 0 -0.0166703 0.0497034 -0.0029154 -0.0014121 0.000826004 -0.00133731 0 0 0 1 0 0 0 0 0 0 0 0 0 0 0 0 187 0.002 
1216 2 0.0137122 0.106496 -0.0328753 0 0 0 0.0184116 -0.00152834 0.0168063 0.00222371 0.00677361 -0.00145328 1 1 0 0 0 0 0 0 0 0 0 0 0 0 0 0 79 0.002 
935 1 0.0175145 0.107721 -0.0329793 0 0 0 -0.0019637 -0.0266293 -0.0109831 0.00149069 0.00363775 -0.00127154 0 1 0 1 0 0 0 0 0 0 0 0 0 0 0 0 142 0.002 
1339 1 0.00876865 0.0787093 -0.0300181 0 0 0 -0.483075 -0.671473 -0.278482 0 -0.000164368 0 0 0 0 0 0 0 0 0 0 0 0 0 0 0 0 0 99 0.002 
1990 2 0.00474094 0.0824495 -0.0296838 0 0 0 0.577442 -0.690942 1.51709 0 -0.000164368 0 0 0 0 0 0 0 0 0 0 0 0 0 0 0 0 0 61 0.002 
1246 2 0.0167149 0.0829214 -0.0316539 0 0 0 1.26453 -0.168238 -1.0029 0 -0.000164368 0 0 0 0 0 0 0 0 0 0 0 0 0 0 0 0 0 108 0.002 
906 3 0.0107085 0.0862244 -0.0298451 0 0 0 -0.214922 -0.0789606 -0.423294 0.00434189 0.00720925 0.00786742 1 0 2 0 0 0 0 0 0 0 0 0 0 0 0 0 153 0.002 
1275 6 0.0139513 0.0907189 -0.0303346 0 0 0 -0.144265 -0.00197969 0.0316007 0 -0.000164368 0 0 0 0 0 0 0 0 0 0 0 0 0 0 0 0 0 167 0.002 
85 8 0.00637226 0.0923694 -0.0294526 0 0 0 0.0186122 0.101343 0.0154705 0.0107039 0.0144973 -0.00776674 0 0 0 0 0 1 0 2 0 0 0 0 0 0 0 0 212 0.002 
2144 4 0.0166689 0.0934803 -0.0293385 0 0 0 -0.104249 -0.0439296 0.0684857 2.71568e-05 -0.000121995 -7.991e-05 0 0 0 0 1 0 0 0 0 0 0 0 0 0 0 0 48 0.002 
2108 9 0.0114361 0.0946062 -0.0299116 0 0 0 -0.168753 0.0898868 -0.087849 -0.0217925 -0.0052034 -0.0261216 0 0 0 0 0 0 0 0 2 0 0 0 0 0 0 0 67 0.002 
1352 5 0.00651588 0.096347 -0.0292972 0 0 0 0.0142885 0.100755 0.00964149 -0.00176333 0.000535244 -0.000204154 0 0 0 0 1 0 0 1 0 0 0 0 0 0 0 0 110 0.002 
708 2 0.00997402 0.0983124 -0.0294855 0 0 0 -0.0398137 0.155118 -0.128097 -0.00296713 0.00311539 -0.00232329 0 2 0 0 1 0 0 0 0 0 0 0 0 0 0 0 170 0.002 
2310 7 0.0145674 0.0970018 -0.0293832 0 0 0 -0.109646 -0.065733 -0.00311743 0.0180214 0.00954697 0.00133101 0 0 0 0 0 0 0 0 1 0 0 0 0 0 1 0 6 0.002 
476 2 0.01664 0.100567 -0.0300473 0 0 0 -0.102923 -0.0181581 0.0254392 0.00426961 0.00427251 0.00549136 0 2 0 0 0 0 0 0 0 0 0 0 0 0 0 0 198 0.002 
121 8 0.00586821 0.100991 -0.0294213 0 0 0 -0.0539571 -0.0085835 0.0810874 -0.00174673 -0.00182325 -0.000564473 1 0 0 0 0 0 0 0 0 0 0 0 0 0 0 0 180 0.002 
197 4 0.00299767 0.103988 -0.0292383 0 0 0 -0.0163392 0.059693 0.0066882 0.00256532 -0.00107607 0.000971045 0 0 0 1 0 1 0 0 0 0 0 0 0 0 0 0 151 0.002 
1308 1 0.00686168 0.105425 -0.0296706 0 0 0 -0.0944417 0.095065 -0.00868079 0.000267203 0.00422851 -0.00302123 2 0 0 1 0 0 0 0 0 0 0 0 0 0 0 0 127 0.002 
1417 4 0.00307605 0.10799 -0.0299871 0 0 0 0.00573248 -0.0238993 0.0265882 0 -0.000164368 0 0 0 0 0 0 0 0 0 0 0 0 0 0 0 0 0 82 0.002 
210 9 0.0105018 0.107943 -0.0307364 0 0 0 -0.00682938 0.148862 0.0359707 0.0015153 0.0228031 0.0121207 1 0 0 0 0 0 0 0 0 0 0 0 0 0 0 0 111 0.002 
1495 4 0.0154545 0.107961 -0.0295323 0 0 0 -0.0507648 0.117949 -0.0845645 0 -0.000164368 0 0 0 0 0 0 0 0 0 0 0 0 0 0 0 0 0 111 0.002 
466 4 0.0121615 0.081917 -0.0296356 0 0 0 -0.44463 -0.0174134 -0.628071 0 -0.000164368 0 0 0 0 0 0 0 0 0 0 0 0 0 0 0 0 0 143 0.002 
2091 4 0.0147475 0.0853842 -0.0278781 0 0 0 -0.197879 -0.333602 -0.285337 0 -0.000164368 0 0 0 0 0 0 0 0 0 0 0 0 0 0 0 0 0 53 0.002 
1863 1 0.00682059 0.0879876 -0.0288666 0 0 0 -0.0156813 0.27558 -1.39827 0.00367705 0.0273137 -0.0461328 1 0 0 0 0 0 0 0 0 0 0 0 0 0 0 0 80 0.002 
1129 1 0.0182396 0.087392 -0.0280117 0 0 0 0.0929567 -0.204544 0.359435 0.00791818 -0.00736092 -0.00256403 2 0 0 0 0 0 0 0 0 0 0 0 0 0 0 0 142 0.002 
20 3 0.00297347 0.0903278 -0.0292638 0 0 0 -0.155338 0.602757 -0.300071 0.0284927 0.00168664 0.0117386 0 0 2 0 0 0 0 1 0 0 0 0 0 0 0 0 64 0.002 
1533 7 0.0103343 0.0900351 -0.0286973 0 0 0 -0.214928 -0.172506 -0.0864314 0.0100853 -0.00709818 -0.00523342 0 0 1 0 0 0 1 0 0 0 0 0 0 0 0 0 95 0.002 
1226 1 0.0029944 0.0943871 -0.0285718 0 0 0 -0.0202639 0.0187156 0.0143554 0.00567668 -0.00450277 0.00336951 2 0 0 0 0 0 0 0 0 0 0 0 0 0 0 0 141 0.002 
29 5 0.0030616 0.0983578 -0.0281683 0 0 0 -0.00774215 -0.0192702 0.000295766 0.000518195 0.00584109 -0.00225087 1 0 0 0 0 0 0 0 0 0 0 0 0 0 0 0 179 0.002 
1662 8 0.0130078 0.100664 -0.0284379 0 0 0 -0.0813888 0.110117 0.0520318 0.00126683 0.00216336 0.00910225 0 2 0 0 0 0 0 1 0 0 0 0 0 0 0 0 84 0.002 
2308 8 0.00953758 0.102526 -0.0290642 0 0 0 -0.0859814 0.116394 0.0411689 -0.000854403 0.00157462 -0.000825251 1 0 0 0 0 0 0 1 0 0 0 0 0 0 0 0 13 0.002 
826 1 0.0131918 0.104691 -0.0286632 0 0 0 0.112116 0.159151 0.0525008 0 -0.000164368 0 0 0 0 0 0 0 0 0 0 0 0 0 0 0 0 0 143 0.002 
2296 9 0.0172349 0.104642 -0.0281612 0 0 0 -0.0363259 0.145597 -0.00389035 -0.000550822 0.00231196 -1.29443e-05 0 0 0 0 0 0 0 0 1 0 0 0 0 0 0 0 13 0.002 
1907 4 0.0141715 0.0770618 -0.0262861 0 0 0 0.494806 -0.60741 -0.992771 0.0352395 0.0765605 -0.0733257 0 0 0 1 0 0 0 0 0 0 0 0 0 0 0 0 98 0.002 
2185 8 0.00639213 0.0847044 -0.0267628 0 0 0 0.0339596 0.517031 0.84539 -0.051961 -0.0221865 -0.00766364 1 0 0 0 0 0 0 1 0 0 0 0 0 0 0 0 32 0.002 
598 6 0.00971235 0.0866366 -0.0260386 0 0 0 1.37571 1.4134 -0.136396 0.00676279 -0.0325075 0.0739621 0 0 1 0 0 1 0 1 0 0 0 0 0 0 0 0 185 0.002 
823 9 0.00301589 0.0871394 -0.0269569 0 0 0 -0.475668 0.318245 -0.18446 0.0313504 -0.0673717 0.0269253 0 0 1 0 0 0 0 0 0 0 0 0 0 0 0 0 121 0.002 
492 2 0.00772367 0.0910292 -0.0258527 0 0 0 0.00485112 -0.0271218 -0.0503088 -0.00584839 0.00640533 0.00456902 0 1 0 0 0 0 1 0 0 0 0 0 0 0 0 0 162 0.002 
1904 6 0.0158162 0.090281 -0.0267551 0 0 0 -0.132887 -0.0360089 0.0972279 0.0166778 -0.0119568 0.00598621 1 0 0 0 0 1 0 0 0 0 0 0 0 0 0 0 47 0.002 
2100 4 0.00381333 0.0917955 -0.0256529 0 0 0 -0.0374981 -0.0803621 0.00036409 -0.00190527 0.000686299 0.00763193 1 1 1 0 0 0 0 0 0 0 0 0 0 0 0 0 54 0.002 
730 9 0.0128295 0.092874 -0.0266122 0 0 0 -0.24107 0.209208 0.00940659 0.0106332 0.00270424 0.00033357 0 0 0 0 0 1 0 0 2 0 0 0 0 0 0 0 203 0.002 
2123 6 0.0172871 0.0936022 -0.0250894 0 0 0 -0.272039 0.105929 0.111472 -0.000776054 -0.00705202 0.000688133 0 0 0 0 0 1 0 0 0 0 0 0 0 0 0 0 63 0.002 
1910 2 0.00596151 0.0956563 -0.0246592 0 0 0 -0.186462 0.296744 -0.136966 0.00531681 0.00368087 -0.00182566 0 2 0 0 0 0 0 0 0 0 0 0 0 0 0 0 68 0.002 
333 2 0.00935521 0.0947766 -0.026511 0 0 0 -0.21368 0.438951 -0.268151 -0.00457695 0.0045682 -0.00391294 0 0 0 0 0 0 0 0 2 0 0 0 0 0 0 0 137 0.002 
925 7 0.0126635 0.0970524 -0.0257473 0 0 0 -0.0813048 -0.0477007 0.0026716 0 -0.000164368 0 0 0 0 0 0 0 0 0 0 0 0 0 0 0 0 0 170 0.002 
2305 8 0.0169493 0.0974456 -0.0260973 0 0 0 -0.0105311 0.106293 -0.120191 0.000468587 0.00111209 0.000600973 0 0 0 0 0 1 0 1 0 0 0 0 0 0 0 0 7 0.002 
542 6 0.00792413 0.0990976 -0.0261518 0 0 0 -0.0722456 0.128473 -0.13998 -0.00421627 3.79118e-05 0.00261293 0 1 0 0 0 1 0 0 0 0 0 0 0 0 0 0 137 0.002 
190 5 0.0145384 0.100772 -0.024746 0 0 0 0.114011 0.259611 -0.0566086 -7.31408e-05 -0.000232299 0.0011614 0 0 0 0 0 0 0 1 0 0 0 0 0 0 0 0 168 0.002 
983 12 0.00329426 0.101719 -0.0259623 0 0 0 -0.128616 0.0446677 0.0217805 0.000434664 -0.000430559 0.00103321 0 0 0 1 0 0 0 0 0 0 0 0 0 0 0 0 165 0.002 
1388 4 0.0182366 0.101213 -0.0263714 0 0 0 -0.0730798 0.138512 -0.0358367 -0.000737088 0.000715853 6.38407e-05 0 0 0 1 0 0 0 1 1 0 0 0 0 0 0 0 169 0.002 
602 8 0.00692604 0.103912 -0.0259778 0 0 0 -0.0887708 0.026659 -0.0792732 -0.000455874 -0.00310458 0.00723575 1 0 0 0 0 0 0 2 0 0 0 0 0 0 0 0 213 0.002 
1090 6 0.0110848 0.103167 -0.025433 0 0 0 -0.0263109 -0.0091788 0.0302933 7.17241e-05 8.70551e-05 0.000376772 0 0 0 0 0 0 0 1 0 0 0 0 0 0 0 0 133 0.002 
1913 2 0.00300678 0.106131 -0.0258569 0 0 0 -6.36398e-05 0.0143487 -0.00889243 -0.000538496 0.00336245 -0.0135551 0 1 0 0 0 0 0 0 0 0 0 0 0 0 0 0 62 0.002 
1956 4 0.0145577 0.107037 -0.0257202 0 0 0 0.0525435 0.103409 -0.0242673 0 -0.000164368 0 0 0 0 0 0 0 0 0 0 0 0 0 0 0 0 0 57 0.002 
1654 7 0.00667501 0.10786 -0.0264904 0 0 0 -0.017076 0.0140423 0.0438095 -0.0016074 0.00653099 -0.0035779 0 0 0 0 0 0 1 1 0 0 0 0 0 0 0 0 95 0.002 
1418 5 0.0108097 0.108002 -0.0267453 0 0 0 0.0327635 0.0190416 0.000247316 0.00144096 -0.00313898 0.000368372 0 0 0 0 0 0 0 0 0 0 0 0 0 0 0 0 113 0.002 
294 1 0.0148735 0.108006 0.00889538 0 0 0 -0.012033 0.0288479 0.11202 0.00138215 -0.00699719 -0.00388392 2 0 0 0 0 0 0 0 0 0 0 0 0 0 0 0 101 0.002 
959 5 0.0187015 0.0938928 0.000920147 0 0 0 -0.0293158 0.0828402 0.353186 0.0131943 -0.00796549 0.0144098 0 0 0 0 1 0 0 0 0 0 0 0 0 0 0 0 154 0.002 
1023 1 0.0130601 0.0871822 -0.0224285 0 0 0 0.107938 1.13675 -0.049975 0.0308439 -0.0312207 0.00875144 0 0 0 0 0 0 0 0 0 0 0 0 0 0 0 0 43 0.002 
1391 1 0.00934602 0.088543 -0.0225654 0 0 0 -0.222199 0.613954 -0.10014 -0.0135436 0.0421478 0.0102932 1 0 0 0 0 1 0 0 0 0 0 0 0 0 0 0 109 0.002 
945 4 0.00851594 0.0934066 -0.0225881 0 0 0 0.11913 0.36979 -0.0703747 0.00179157 -0.000997667 0.000333079 0 1 0 0 0 0 0 0 0 0 0 0 0 0 0 0 59 0.002 
675 10 0.0130008 0.0940642 -0.0228219 0 0 0 0.166796 0.278043 0.155444 0.00341292 -0.00228879 0.0117179 0 0 0 0 0 0 0 0 1 0 0 0 0 0 0 0 232 0.002 
647 2 0.0029918 0.0982264 -0.0240264 0 0 0 -0.214946 0.261816 0.0533485 0.0167756 -0.00629253 -0.011968 0 0 0 0 0 0 0 0 0 0 0 0 0 0 0 0 169 0.002 
251 5 0.00978136 0.0973465 -0.0229534 0 0 0 0.237279 0.17821 -0.0679253 0.00169913 -0.00294164 -0.00196915 0 0 0 0 1 0 0 0 0 0 0 0 0 0 0 0 217 0.002 
2093 7 0.00614566 0.101142 -0.0232162 0 0 0 -0.0373837 0.0805043 -0.0104312 -0.000480536 -0.00723512 0.00238507 0 0 0 0 0 1 0 1 0 0 0 0 0 0 0 0 72 0.002 
2119 1 0.00330261 0.104048 -0.0224769 0 0 0 -0.0263673 -0.0853986 -0.0446168 -0.00282965 -0.0083512 0.00826732 2 1 0 0 0 0 0 0 0 0 0 0 0 0 0 0 59 0.002 
1056 1 0.0141533 0.104325 -0.0227693 0 0 0 -0.0352198 0.0710694 -0.016661 0.00475547 0.000888616 -0.00604987 2 0 0 0 0 0 0 0 0 0 0 0 0 0 0 0 131 0.002 
1665 2 0.00306315 0.108017 -0.0223177 0 0 0 0.0176604 -0.0676313 -0.0104003 -0.00113063 -0.00970794 0.00443113 1 0 0 0 0 0 0 0 0 0 0 0 0 0 0 0 101 0.002 
168 2 0.00767785 0.107948 -0.0226196 0 0 0 -0.0306311 -0.00734584 0.0704769 -0.000466724 0.000479938 -0.000284537 0 0 0 0 0 0 1 0 0 0 0 0 0 0 0 0 129 0.002 
1973 9 0.0174364 0.107969 -0.0230187 0 0 0 -0.0757719 0.0794403 0.1169 0 -0.000164368 0 0 0 0 0 0 0 0 0 0 0 0 0 0 0 0 0 48 0.002 
1087 9 0.0178946 0.0801017 -0.02085 0 0 0 -0.312442 -0.147413 0.129323 0 -0.000164368 0 0 0 0 0 0 0 0 0 0 0 0 0 0 0 0 0 154 0.002 
1868 10 0.0118623 0.0827732 -0.0225395 0 0 0 1.9335 -0.7706 -0.916341 0 -0.000164368 0 0 0 0 0 0 0 0 0 0 0 0 0 0 0 0 0 57 0.002 
2018 8 0.00348677 0.0848056 -0.0216663 0 0 0 0.0688848 -0.473971 0.660146 0 -0.000164368 0 0 0 0 0 0 0 0 0 0 0 0 0 0 0 0 0 65 0.002 
1403 11 0.0169717 0.086558 -0.0215827 0 0 0 0.266574 0.0317012 -0.538863 0 -0.000164368 0 0 0 0 0 0 0 0 0 0 0 0 0 0 0 0 0 171 0.002 
1081 4 0.00302349 0.0906321 -0.0219139 0 0 0 0.0849209 -0.15389 0.0845752 0.000688883 0.00202453 -0.00122469 0 0 0 2 0 0 0 0 0 0 0 0 0 0 0 0 132 0.002 
223 8 0.0160957 0.0909491 -0.0223205 0 0 0 -0.330907 -0.318176 -0.0792348 0.0017353 0.00111194 -0.000129223 0 0 0 0 0 0 0 1 0 0 0 0 0 0 0 0 205 0.002 
531 1 0.00298612 0.0946108 -0.0222412 0 0 0 0.0390086 -0.0285443 -0.00821512 -0.00338697 0.00398063 -0.000687602 0 1 0 1 0 0 0 0 0 0 0 0 0 0 0 0 160 0.002 
77 2 0.00588496 0.0976117 -0.0211804 0 0 0 0.000825313 0.125956 -0.0274606 0.000946964 0.00260551 0.00169898 0 1 0 0 0 0 0 0 0 0 0 0 0 0 0 0 125 0.002 
1108 3 0.0176029 0.0964256 -0.0220675 0 0 0 0.236053 -0.106672 0.098521 -0.0161599 -0.0121503 0.00958696 0 0 1 0 0 0 0 0 0 0 0 0 0 0 0 0 153 0.002 
1765 6 0.00313723 0.100504 -0.0206572 0 0 0 -0.15951 -0.00119163 -0.0528984 0.00412053 -0.0115724 0.00238247 1 0 0 0 0 0 0 0 0 0 0 0 0 0 0 0 111 0.002 
339 6 0.00929484 0.10064 -0.0207574 0 0 0 0.100839 0.253998 -0.0814964 0.000593703 -0.00364043 0.00109327 0 0 0 0 1 0 0 0 0 0 0 0 0 0 0 0 202 0.002 
2090 4 0.013313 0.0986532 -0.021513 0 0 0 0.192372 0.218511 0.0352572 -0.00585306 -0.00357863 3.53146e-05 0 0 0 1 0 0 0 0 0 0 0 0 0 0 0 0 42 0.002 
771 4 0.0161617 0.101384 -0.0209282 0 0 0 0.0720278 0.232245 0.0388098 -0.00889558 -0.00504455 0.00850708 0 0 0 1 0 0 0 0 0 0 0 0 0 0 0 0 166 0.002 
1943 1 0.0102186 0.104904 -0.0217781 0 0 0 -0.106576 -0.0878294 0.0294827 -0.000964856 0.00340822 -0.00204058 1 0 0 0 0 0 0 0 0 0 0 0 0 0 0 0 74 0.002 
1166 7 0.0170254 0.105203 -0.0200519 0 0 0 -0.023803 -0.0948106 0.0647152 0 -0.000164368 0 0 0 0 0 0 0 0 0 0 0 0 0 0 0 0 0 169 0.002 
1122 3 0.0135041 0.108002 -0.0213573 0 0 0 -0.0525016 -0.00834476 0.0640982 0.00103024 0.00615417 -0.00011327 1 0 0 0 0 0 0 0 0 0 0 0 0 0 0 0 118 0.002 
1947 3 0.0176688 0.0835954 -0.0188846 0 0 0 -0.0381712 -0.754238 -1.20395 -0.677111 1.97764 -0.32379 0 0 1 0 0 0 0 0 0 0 0 0 0 0 0 0 62 0.002 
372 3 0.0121858 0.0854263 -0.0182626 0 0 0 -0.684667 -0.565214 0.182193 0 -0.000164368 0 0 0 0 0 0 0 0 0 0 0 0 0 0 0 0 0 186 0.002 
654 9 0.00466461 0.0866388 -0.0182627 0 0 0 -0.636962 -0.54008 0.744337 0 -0.000164368 0 0 0 0 0 0 0 0 0 0 0 0 0 0 0 0 0 201 0.002 