ITEM: TIMESTEP
18850000
ITEM: NUMBER OF ATOMS
2279
ITEM: BOX BOUNDS ff ff ff
-0.01 0.45
-0.15 0.15
-0.08 0.1
ITEM: ATOMS id type x y z ix iy iz vx vy vz fx fy fz c_cc_1 c_cc_2 c_cc_3 c_cc_4 c_cc_5 c_cc_6 c_cc_7 c_cc_8 c_cc_9 c_cc_10 c_cc_11 c_cc_12 c_cc_13 c_cc_14 c_cc_15 c_cc_16 f_fppacc radius 
1896 2 0.0113791 -0.0547213 0.0187161 0 0 0 1.07605 2.06722 6.08941 0.00987536 0.16613 -0.0677007 0 0 0 0 0 0 0 0 0 0 0 0 0 0 0 0 97 0.002 
1347 3 0.00695829 -0.00654668 -0.0552055 0 0 0 2.00962 -3.81391 1.75308 0 -0.000164368 0 0 0 0 0 0 0 0 0 0 0 0 0 0 0 0 0 146 0.002 
1292 4 0.0103614 -0.0354432 -0.0231394 0 0 0 -0.82166 -28.0177 7.29343 0 -0.000164368 0 0 0 0 0 0 0 0 0 0 0 0 0 0 0 0 0 152 0.002 
2067 1 0.0123205 -0.027739 0.0508719 0 0 0 -11.0848 18.5088 8.40427 -0.118561 -0.0566095 -1.23173 0 0 0 0 0 0 0 0 0 0 0 0 0 0 0 0 54 0.002 
904 8 0.0034211 -0.00479538 0.0572877 0 0 0 3.74815 15.6625 0.207451 0 -0.000164368 0 0 0 0 0 0 0 0 0 0 0 0 0 0 0 0 0 190 0.002 
890 1 0.0155834 -0.0264104 0.0514791 0 0 0 -8.66161 30.6759 14.9764 0.271478 0.538485 -0.0550745 0 0 0 0 0 0 0 0 0 0 0 0 0 0 0 0 145 0.002 
929 2 0.00840859 -0.0347045 0.0462593 0 0 0 -13.5075 25.4675 16.8434 -0.0256433 0.0511271 -0.0389852 0 0 0 0 0 0 0 0 0 0 0 0 0 0 0 0 169 0.002 
849 13 0.0035463 0.0173896 -0.0484918 0 0 0 -2.02495 -22.3359 2.95846 0 -0.000164368 0 0 0 0 0 0 0 0 0 0 0 0 0 0 0 0 0 206 0.002 
1523 5 0.0177204 0.0201906 -0.05031 0 0 0 0.987756 -3.63928 -14.1325 0 -0.000164368 0 0 0 0 0 0 0 0 0 0 0 0 0 0 0 0 0 112 0.002 
764 3 0.00438663 0.0226495 -0.025271 0 0 0 -0.902962 -3.04526 0.254747 0 -0.000164368 0 0 0 0 0 0 0 0 0 0 0 0 0 0 0 0 0 151 0.002 
1980 13 0.00430371 0.00384313 0.0576923 0 0 0 -2.06011 25.986 -2.99214 0.00542187 -0.0708771 -0.114201 0 0 0 0 0 0 0 0 0 0 0 0 0 0 0 0 34 0.002 
665 4 0.0179948 0.0513015 -0.0355037 0 0 0 -1.43582e-07 -1.63042e-07 1.20609e-09 1.54405e-07 1.54944e-07 -6.34305e-10 0 0 0 2 0 0 0 0 0 0 0 0 0 0 0 0 278 0.002 
393 1 0.013745 0.0541008 -0.0355 0 0 0 2.22525e-308 -1.21775e-19 -1.11877e-12 -0 0 0 0 0 0 0 0 0 0 0 0 0 0 0 0 0 0 0 1 0.002 
1145 2 0.0126117 0.0650926 -0.0355 0 0 0 -9.47821e-15 5.81523e-15 6.17499e-12 2.28803e-15 -2.59206e-15 0 0 0 0 0 0 0 0 0 0 0 0 0 0 0 0 0 4 0.002 
465 6 0.0169561 0.0642925 -0.0355038 0 0 0 2.65627e-07 -9.79499e-07 2.43955e-14 -1.88108e-07 6.93647e-07 -1.03029e-13 0 0 0 0 0 1 0 0 0 0 0 0 0 0 0 0 24 0.002 
1847 9 0.00327353 0.0578528 -0.0323952 0 0 0 0.522318 -1.27331 0.625503 0 -0.000164368 0 0 0 0 0 0 0 0 0 0 0 0 0 0 0 0 0 87 0.002 
1698 1 0.0113659 0.0564705 -0.0317473 0 0 0 0.146253 -0.841392 1.13821 0 -0.000164368 0 0 0 0 0 0 0 0 0 0 0 0 0 0 0 0 0 97 0.002 
905 3 0.00582448 0.0657085 -0.0321126 0 0 0 2.3892 1.32896 0.978537 0 -0.000164368 0 0 0 0 0 0 0 0 0 0 0 0 0 0 0 0 0 133 0.002 
2347 6 0.00655033 0.0734383 -0.0326187 0 0 0 0.126461 -0.232874 -0.0203426 -0.00113301 -0.0812581 -0.0292337 0 0 0 0 0 1 0 0 0 0 0 0 0 0 0 0 1 0.002 
1719 3 0.00392282 0.0691293 -0.029279 0 0 0 1.71407 -0.175754 1.18881 0 -0.000164368 0 0 0 0 0 0 0 0 0 0 0 0 0 0 0 0 0 89 0.002 
1808 5 0.00843392 0.0702063 -0.0288815 0 0 0 -0.456197 -0.29238 3.78267 0 -0.000164368 0 0 0 0 0 0 0 0 0 0 0 0 0 0 0 0 0 55 0.002 
2064 6 0.00325194 0.0738231 -0.0292785 0 0 0 0.502273 0.670345 1.1883 0 -0.000164368 0 0 0 0 0 0 0 0 0 0 0 0 0 0 0 0 0 33 0.002 
1981 1 0.0153134 0.0580676 -0.0270273 0 0 0 -0.801656 0.0723833 1.08691 0 -0.000164368 0 0 0 0 0 0 0 0 0 0 0 0 0 0 0 0 0 88 0.002 
1070 2 0.0097989 0.0411166 -0.0247966 0 0 0 0.498725 -1.55185 0.554387 0 -0.000164368 0 0 0 0 0 0 0 0 0 0 0 0 0 0 0 0 0 125 0.002 
748 1 0.0152692 0.0687419 -0.0258236 0 0 0 2.46671 -0.315593 1.73103 0 -0.000164368 0 0 0 0 0 0 0 0 0 0 0 0 0 0 0 0 0 82 0.002 
1506 7 0.00482354 0.0724127 -0.0251285 0 0 0 -0.927108 -0.339253 2.41857 0 -0.000164368 0 0 0 0 0 0 0 0 0 0 0 0 0 0 0 0 0 93 0.002 
1714 4 0.00923562 0.0603428 -0.0220796 0 0 0 1.0748 -1.5904 0.425356 0 -0.000164368 0 0 0 0 0 0 0 0 0 0 0 0 0 0 0 0 0 72 0.002 
1020 2 0.00626961 0.0699655 -0.0213691 0 0 0 1.11499 -1.5169 -0.576812 0 -0.000164368 0 0 0 0 0 0 0 0 0 0 0 0 0 0 0 0 0 97 0.002 
1873 4 0.00483612 0.0410753 -0.0167688 0 0 0 1.02306 -0.557203 -0.211123 0 -0.000164368 0 0 0 0 0 0 0 0 0 0 0 0 0 0 0 0 0 37 0.002 
918 8 0.00341243 0.070757 -0.0124538 0 0 0 2.58086 -5.57174 1.8972 0 -0.000164368 0 0 0 0 0 0 0 0 0 0 0 0 0 0 0 0 0 201 0.002 
589 16 0.00787126 0.0667816 -0.0106748 0 0 0 3.33099 -3.00129 -5.02451 0 -0.000164368 0 0 0 0 0 0 0 0 0 0 0 0 0 0 0 0 0 193 0.002 
2200 11 0.00326433 0.073186 -0.00363034 0 0 0 1.85716 3.10193 1.04673 0 -0.000164368 0 0 0 0 0 0 0 0 0 0 0 0 0 0 0 0 0 37 0.002 
2141 8 0.0101659 0.0538238 -0.00293142 0 0 0 -1.02192 1.07425 -5.82764 0 -0.000164368 0 0 0 0 0 0 0 0 0 0 0 0 0 0 0 0 0 40 0.002 
2353 7 0.0128601 0.0716 -0.0028382 0 0 0 2.38974 6.41723 -8.16642 0 -0.000164368 0 0 0 0 0 0 0 0 0 0 0 0 0 0 0 0 0 0 0.002 
2068 13 0.0172141 0.0688795 0.00173125 0 0 0 10.0614 22.3405 -38.8995 0 -0.000164368 0 0 0 0 0 0 0 0 0 0 0 0 0 0 0 0 0 50 0.002 
823 9 0.0133916 0.0379661 -0.0275489 0 0 0 0.946808 3.07502 -15.4062 0 -0.000164368 0 0 0 0 0 0 0 0 0 0 0 0 0 0 0 0 0 120 0.002 
1863 1 0.00300442 0.0703026 0.013478 0 0 0 -0.0101684 -0.125626 -0.149269 0 -0.000164368 0 0 0 0 0 0 0 0 0 0 0 0 0 0 0 0 0 79 0.002 
361 2 0.00437364 0.0653674 0.0150339 0 0 0 0.211575 -0.262622 -0.377666 0 -0.000164368 0 0 0 0 0 0 0 0 0 0 0 0 0 0 0 0 0 176 0.002 
1419 6 0.0030873 0.0748863 0.0152099 0 0 0 0.128125 0.122601 -0.0207514 0 -0.000164368 0 0 0 0 0 0 0 0 0 0 0 0 0 0 0 0 0 93 0.002 
85 8 0.00837377 0.074915 0.0159056 0 0 0 0.446736 -0.1549 -0.980359 0 -0.000164368 0 0 0 0 0 0 0 0 0 0 0 0 0 0 0 0 0 209 0.002 
1955 2 0.0035579 0.0701513 0.0174464 0 0 0 0.0529428 -0.215596 -0.12923 0 -0.000164368 0 0 0 0 0 0 0 0 0 0 0 0 0 0 0 0 0 56 0.002 
1609 14 0.0149631 0.0748352 0.0179979 0 0 0 0.301892 -0.283734 0.0502356 0 -0.000164368 0 0 0 0 0 0 0 0 0 0 0 0 0 0 0 0 0 153 0.002 
1929 3 0.00302887 0.0735184 0.0329462 0 0 0 0.0201892 -0.0397998 -0.0219966 0 -0.000164368 0 0 0 0 0 0 0 0 0 0 0 0 0 0 0 0 0 42 0.002 
104 5 0.0032545 0.0620512 0.0194711 0 0 0 0.284986 -0.554142 -0.448971 0 -0.000164368 0 0 0 0 0 0 0 0 0 0 0 0 0 0 0 0 0 121 0.002 
1287 9 0.0123477 0.0653761 0.0198029 0 0 0 -4.02035 3.83328 -3.17443 0.319152 -0.884911 -0.232995 0 0 0 0 0 0 0 0 1 0 0 0 0 0 0 0 154 0.002 
2018 8 0.0103565 0.0683786 0.0207666 0 0 0 -0.751137 2.94875 0.0299538 -0.124244 0.66306 0.171214 0 0 0 0 0 0 0 1 1 0 0 0 0 0 0 0 65 0.002 
2194 3 0.00937579 0.0721176 0.0199667 0 0 0 -0.401796 0.0955742 -0.0620094 -0.194908 0.221357 0.0617809 0 0 0 0 0 0 0 1 0 0 0 0 0 0 0 0 36 0.002 
1097 8 0.00690707 0.0648401 0.0222917 0 0 0 -0.233813 -0.377186 -0.145786 0.000887052 -0.00108407 -0.00173651 0 0 0 0 0 0 0 0 0 0 0 0 0 0 0 0 183 0.002 
1479 2 0.0157838 0.0671757 0.0216886 0 0 0 1.39463 1.0692 -0.423673 -0.0104445 -0.0630188 -0.0573425 0 1 0 0 0 0 0 0 0 0 0 0 0 0 0 0 135 0.002 
1683 4 0.00456979 0.069349 0.0212677 0 0 0 -0.00773035 -0.0514885 -0.0653661 0 -0.000164368 0 0 0 0 0 0 0 0 0 0 0 0 0 0 0 0 0 145 0.002 
1829 2 0.0134414 0.0716694 0.0211936 0 0 0 0.00620148 0.0086903 -0.296683 0 -0.000164368 0 0 0 0 0 0 0 0 0 0 0 0 0 0 0 0 0 73 0.002 
927 2 0.00619815 0.0730683 0.0233296 0 0 0 -0.0375678 -0.136303 -0.151096 -0.00210066 0.00160941 -0.00165587 0 1 0 0 0 0 0 0 0 0 0 0 0 0 0 0 202 0.002 
865 7 0.00774391 0.0580569 0.0235808 0 0 0 -0.37384 -0.560449 -0.540398 0 -0.000164368 0 0 0 0 0 0 0 0 0 0 0 0 0 0 0 0 0 171 0.002 
654 9 0.00300609 0.0634294 0.0238877 0 0 0 0.0265975 -0.243917 -0.168203 0 -0.000164368 0 0 0 0 0 0 0 0 0 0 0 0 0 0 0 0 0 201 0.002 
2158 8 0.00502846 0.0665965 0.0253459 0 0 0 -0.144154 -0.212527 -0.144186 -0.000887052 0.000755331 0.00173651 0 0 0 0 0 0 0 0 0 0 0 0 0 0 0 0 35 0.002 
1667 1 0.00301225 0.070033 0.0249185 0 0 0 0.00209167 -0.1314 -0.0631318 0 -0.000164368 0 0 0 0 0 0 0 0 0 0 0 0 0 0 0 0 0 80 0.002 
1481 1 0.00782969 0.0696512 0.024606 0 0 0 -0.0928951 -0.0833258 -0.0751988 0.00210066 -0.00193814 0.00165587 0 1 0 0 0 0 0 0 0 0 0 0 0 0 0 0 148 0.002 
178 7 0.0122868 0.0697474 0.0255911 0 0 0 -0.0434702 -0.177102 -0.192615 0 -0.000164368 0 0 0 0 0 0 0 0 0 0 0 0 0 0 0 0 0 191 0.002 
1728 4 0.0162264 0.0697803 0.0245661 0 0 0 0.48638 0.6327 1.44822 -0.0434662 -0.0849424 -0.123357 0 1 0 2 0 0 0 0 0 0 0 0 0 0 0 0 109 0.002 
816 10 0.0108039 0.0733611 0.0238239 0 0 0 0.0562968 -0.185691 -0.00791448 0 -0.000164368 0 0 0 0 0 0 0 0 0 0 0 0 0 0 0 0 0 215 0.002 
1637 7 0.0075749 0.0629818 0.0258435 0 0 0 0.090445 -0.381832 0.0534474 0 -0.000164368 0 0 0 0 0 0 0 0 0 0 0 0 0 0 0 0 0 116 0.002 
2070 3 0.0125759 0.0617493 0.0269934 0 0 0 -0.695048 -0.354227 -0.390998 0 -0.000164368 0 0 0 0 0 0 0 0 0 0 0 0 0 0 0 0 0 43 0.002 
2133 7 0.00898894 0.0666496 0.0270676 0 0 0 -0.121443 -0.107505 -0.0237218 0 -0.000164368 0 0 0 0 0 0 0 0 0 0 0 0 0 0 0 0 0 44 0.002 
2076 1 0.0129362 0.065823 0.0269762 0 0 0 -0.122639 -0.271498 -0.197509 0 -0.000164368 0 0 0 0 0 0 0 0 0 0 0 0 0 0 0 0 0 68 0.002 
1513 3 0.00969714 0.0720674 0.0276442 0 0 0 0.0419736 -0.183598 -0.0425336 0.000172407 0.000101531 0.000164482 0 0 1 0 0 0 0 0 0 0 0 0 0 0 0 0 112 0.002 
1541 1 0.00328432 0.073874 0.0260119 0 0 0 0.0310918 -0.140637 0.0262742 0 -0.000164368 0 0 0 0 0 0 0 0 0 0 0 0 0 0 0 0 0 122 0.002 
519 4 0.0147543 0.073079 0.0260708 0 0 0 -0.106372 0.350781 0.363459 -0.00838055 0.080794 0.0623321 0 0 0 3 0 0 0 0 0 0 0 0 0 0 0 0 131 0.002 
1401 2 0.0185411 0.0735 0.0272589 0 0 0 -0.022515 -0.115743 -0.00540033 0.00312461 0.00449019 -0.00193203 0 2 0 1 0 0 0 0 0 0 0 0 0 0 0 0 153 0.002 
1912 1 0.00688635 0.0546707 0.0295506 0 0 0 -0.232035 0.134095 -0.851416 0 -0.000164368 0 0 0 0 0 0 0 0 0 0 0 0 0 0 0 0 0 84 0.002 
2101 3 0.00310081 0.0632728 0.0288176 0 0 0 0.0240659 -0.189967 -0.0107872 0 -0.000164368 0 0 0 0 0 0 0 0 0 0 0 0 0 0 0 0 0 53 0.002 
157 4 0.00310549 0.0674691 0.0290405 0 0 0 0.0151127 -0.272013 -0.0405115 0 -0.000164368 0 0 0 0 0 0 0 0 0 0 0 0 0 0 0 0 0 73 0.002 
1098 3 0.0165388 0.0667104 0.0292002 0 0 0 -0.113579 -0.172008 -0.0499114 0.000861783 -0.00100643 -0.000122153 0 0 0 0 0 0 0 0 0 0 0 0 0 0 0 0 151 0.002 
2126 3 0.00673328 0.0695877 0.0292049 0 0 0 0.059506 -0.163051 -0.0561525 0.000301245 0.000361476 -0.000707516 0 0 0 0 0 0 0 0 0 0 0 0 0 0 0 0 54 0.002 
1535 4 0.010897 0.0690369 0.0302132 0 0 0 -0.0992675 -0.0442365 0.226636 0 -0.000164368 0 0 0 0 0 0 0 0 0 0 0 0 0 0 0 0 0 146 0.002 
1805 4 0.00306606 0.0715866 0.0293313 0 0 0 0.029526 -0.207892 0.00633944 0 -0.000164368 0 0 0 0 0 0 0 0 0 0 0 0 0 0 0 0 0 102 0.002 
1284 3 0.0152509 0.0704539 0.0297465 0 0 0 -0.0826376 -0.155861 -0.0552165 -0.000861783 0.000677697 0.000122153 0 0 0 0 0 0 0 0 0 0 0 0 0 0 0 0 172 0.002 
2111 2 0.00635815 0.0740698 0.0285725 0 0 0 0.0710449 -0.119145 0.0178361 0 -0.000164368 0 0 0 0 0 0 0 0 0 0 0 0 0 0 0 0 0 47 0.002 
2196 9 0.0128476 0.073671 0.0295155 0 0 0 -0.0333885 -0.0492591 0.0129335 -0.0133983 0.0272368 0.0269107 0 0 1 1 0 0 0 0 0 0 0 0 0 0 0 0 53 0.002 
1260 7 0.0169936 0.0537182 0.0315558 0 0 0 -0.00476694 -0.44715 -0.0803135 0 -0.000164368 0 0 0 0 0 0 0 0 0 0 0 0 0 0 0 0 0 132 0.002 
1157 1 0.00937507 0.0577806 0.0319536 0 0 0 -0.440734 -0.19032 -0.275988 0 -0.000164368 0 0 0 0 0 0 0 0 0 0 0 0 0 0 0 0 0 72 0.002 
998 6 0.00320623 0.0608057 0.0324634 0 0 0 -0.179377 -0.205064 0.0235592 0 -0.000164368 0 0 0 0 0 0 0 0 0 0 0 0 0 0 0 0 0 151 0.002 
273 2 0.0139726 0.0598254 0.0323337 0 0 0 0.130636 -0.244185 -0.0824794 0 -0.000164368 0 0 0 0 0 0 0 0 0 0 0 0 0 0 0 0 0 135 0.002 
1773 7 0.00855454 0.0619274 0.0320379 0 0 0 0.112755 0.111819 0.0492548 -0.00281807 -0.0447796 0.0106916 0 0 0 0 0 0 1 0 0 0 0 0 0 0 0 0 78 0.002 
517 2 0.00669783 0.065273 0.0303279 0 0 0 -0.121969 0.115759 -0.183725 0 -0.000164368 0 0 0 0 0 0 0 0 0 0 0 0 0 0 0 0 0 201 0.002 
1951 1 0.0158961 0.063576 0.0320746 0 0 0 -0.0636332 -0.172896 -0.181418 0 -0.000164368 0 0 0 0 0 0 0 0 0 0 0 0 0 0 0 0 0 89 0.002 
2271 5 0.00341326 0.0535297 0.0329892 0 0 0 -0.128857 -0.89358 -0.0903612 0 -0.000164368 0 0 0 0 0 0 0 0 0 0 0 0 0 0 0 0 0 1 0.002 
1002 4 0.00313325 0.0650824 0.0329774 0 0 0 0.0279623 -0.108889 -0.00629587 0 -0.000164368 0 0 0 0 0 0 0 0 0 0 0 0 0 0 0 0 0 146 0.002 
1618 1 0.0101176 0.0654677 0.0329972 0 0 0 -0.114458 -0.514898 -0.0117919 0.00281807 0.0444508 -0.0106916 0 0 0 0 0 0 1 0 0 0 0 0 0 0 0 0 90 0.002 
2063 1 0.0139194 0.0672252 0.0328848 0 0 0 -0.151036 -0.151728 -0.00192679 0 -0.000164368 0 0 0 0 0 0 0 0 0 0 0 0 0 0 0 0 0 39 0.002 
380 4 0.00300592 0.0694632 0.0329932 0 0 0 0.00416917 -0.0652161 0.00681552 0 -0.000164368 0 0 0 0 0 0 0 0 0 0 0 0 0 0 0 0 0 143 0.002 
1268 3 0.0068319 0.0682766 0.0329778 0 0 0 0.00346569 -0.0536372 0.00945444 -0.000301245 -0.000690213 0.000707516 0 0 0 0 0 0 0 0 0 0 0 0 0 0 0 0 81 0.002 
233 7 0.017798 0.0684996 0.0329544 0 0 0 -0.152304 0.00431445 -0.0259507 0 -0.000164368 0 0 0 0 0 0 0 0 0 0 0 0 0 0 0 0 0 111 0.002 
1462 2 0.00902198 0.0717572 0.0326471 0 0 0 -0.0922402 -0.150433 -0.0160798 0 -0.000164368 0 0 0 0 0 0 0 0 0 0 0 0 0 0 0 0 0 84 0.002 
1059 2 0.0130477 0.0715967 0.0329924 0 0 0 -0.0817983 -0.109131 0.00503384 0 -0.000164368 0 0 0 0 0 0 0 0 0 0 0 0 0 0 0 0 0 141 0.002 
1053 1 0.01819 0.0725634 0.0330003 0 0 0 -0.0620734 -0.0289656 -0.00775133 -5.4898e-05 -0.000102883 0.000247866 0 0 0 0 0 0 0 0 0 0 0 0 0 0 0 0 145 0.002 
2075 1 0.00298892 0.0758025 -0.0330162 0 0 0 0.289674 -0.188217 0.1305 -0.0187571 0.0011774 0.0127828 0 0 0 0 0 0 0 0 0 0 0 0 0 0 0 0 43 0.002 
1625 3 0.0030394 0.0798466 -0.0329874 0 0 0 0.112995 -0.377049 -0.0464476 0 -0.000164368 0 0 0 0 0 0 0 0 0 0 0 0 0 0 0 0 0 98 0.002 
466 4 0.006845 0.0810189 -0.0325147 0 0 0 0.199538 -0.314417 0.177473 -0.0142292 0.0237961 -0.0124936 0 0 0 1 0 0 0 0 0 0 0 0 0 0 0 0 143 0.002 
1275 6 0.00953227 0.0840082 -0.0322453 0 0 0 -0.121202 0.201651 0.530854 0.027863 -0.029011 -0.0166108 0 0 0 0 0 2 0 0 0 0 0 0 0 0 0 0 167 0.002 
2112 2 0.0029828 0.0868755 -0.0329728 0 0 0 -0.0405566 -0.0726384 -0.0333066 -0.0666902 -0.0121727 -0.0247991 0 3 0 0 0 0 0 0 0 0 0 0 0 0 0 0 61 0.002 
1082 4 0.00694329 0.0869241 -0.0329172 0 0 0 -0.443707 -0.0776537 -0.365099 0.0758592 -0.0107128 0.0453115 0 1 0 1 0 1 0 0 0 0 0 0 0 0 0 0 149 0.002 
592 9 0.0120012 0.0871199 -0.033002 0 0 0 0.490501 0.158837 0.0281791 -0.00208492 0.000860862 0.000771346 0 0 0 0 0 0 0 0 0 0 0 0 0 0 0 0 186 0.002 
311 2 0.0165325 0.0875953 -0.0329189 0 0 0 0.125688 0.311235 0.00844244 0 -0.000164368 0 0 0 0 0 0 0 0 0 0 0 0 0 0 0 0 0 64 0.002 
704 3 0.00492907 0.0903221 -0.0330243 0 0 0 -0.312108 0.0965915 0.0357812 0.0105132 -0.000606599 0.00283512 0 1 2 1 0 0 0 0 0 0 0 0 0 0 0 0 159 0.002 
2108 9 0.00985411 0.0902672 -0.0318084 0 0 0 -0.217408 -0.0984284 -0.077847 0.00185121 -0.00460074 -0.00155946 0 0 0 0 0 0 0 0 1 0 0 0 0 0 0 0 64 0.002 
2318 7 0.00297866 0.0934717 -0.0316069 0 0 0 -0.156587 0.0365572 0.11459 0.034467 -0.00717635 -0.00455968 0 0 1 0 0 0 1 0 0 0 0 0 0 0 0 0 4 0.002 
1499 5 0.0138292 0.0913644 -0.0327127 0 0 0 -0.0834326 -0.318048 0.0775763 0 -0.000164368 0 0 0 0 0 0 0 0 0 0 0 0 0 0 0 0 0 63 0.002 
792 2 0.0177992 0.0919576 -0.032973 0 0 0 0.0514903 -0.104184 -0.0207055 -0.00403312 0.0170383 -0.0117586 0 2 0 0 0 0 0 0 0 0 0 0 0 0 0 0 159 0.002 
2115 3 0.0107403 0.0939601 -0.0330183 0 0 0 0.033401 0.0279559 0.0451821 -0.0044434 -0.0145646 0.00468398 0 0 3 0 0 0 0 0 1 0 0 0 0 0 0 0 65 0.002 
1335 15 0.0152805 0.0953144 -0.0329986 0 0 0 0.00508902 0.0245269 0.0281507 0.0176761 -0.00357277 -0.00215038 0 0 0 0 0 0 0 0 0 0 0 0 0 0 2 0 166 0.002 
1445 3 0.002991 0.0972193 -0.0329785 0 0 0 0.0138167 -0.0166699 0.0314509 0.00110804 0.00239321 0.00201682 0 0 1 0 0 0 1 0 0 0 0 0 0 0 0 0 113 0.002 
1901 1 0.00773894 0.0965913 -0.0329984 0 0 0 0.00626976 0.0898214 0.0615429 -0.00185775 -0.0238487 0.00317738 0 0 1 0 0 0 0 0 0 0 0 0 0 0 0 0 73 0.002 
796 1 0.0120844 0.0976937 -0.0329275 0 0 0 0.140217 -0.0145771 0.00503956 -0.012096 -0.0126794 0.0116664 1 0 1 0 0 0 0 0 0 0 0 0 0 0 1 0 172 0.002 
1958 12 0.00509586 0.100602 -0.033002 0 0 0 -0.0402903 0.0347873 -0.00247745 0.00297405 0.00191496 -0.00131428 0 0 1 0 0 0 0 0 0 0 0 2 0 0 0 0 83 0.002 
520 1 0.00907537 0.100339 -0.0329623 0 0 0 -0.0561248 -0.0531328 -0.0503021 -3.14888e-05 0.0148659 -0.00429047 0 0 0 0 0 0 0 0 0 0 0 1 0 0 0 0 174 0.002 
1680 3 0.0128843 0.101571 -0.0329992 0 0 0 -0.0814814 0.059158 -0.0339622 -0.00238075 -0.0126612 -0.00755801 1 0 3 0 0 0 0 0 0 0 0 0 0 0 0 0 126 0.002 
58 4 0.0167397 0.102627 -0.0329992 0 0 0 0.0453596 -0.0630857 -0.0261512 2.21934e-05 -0.000810934 -0.000797816 0 0 1 3 0 0 0 0 0 0 0 0 0 0 0 0 161 0.002 
529 6 0.00300291 0.104275 -0.0329957 0 0 0 0.0107972 -0.0978999 0.0127993 -0.00229165 -0.00134648 -0.00351684 0 0 0 0 0 1 0 0 0 0 0 0 0 0 0 0 154 0.002 
241 1 0.00988002 0.104236 -0.0328679 0 0 0 0.0516958 -0.0772257 0.0319549 0.008175 -0.000125123 0.00100926 1 0 0 0 0 0 0 0 0 0 0 0 0 0 0 0 211 0.002 
1216 2 0.0138808 0.105394 -0.0329001 0 0 0 0.0475383 0.00528375 0.0656257 0.000681718 -0.00250003 -0.00133669 0 2 1 1 0 0 0 0 0 0 0 0 0 0 0 0 76 0.002 
214 4 0.00678644 0.107596 -0.0329894 0 0 0 0.0364596 0.00319439 0.00563927 0 -0.000164368 0 0 0 0 0 0 0 0 0 0 0 0 0 0 0 0 0 186 0.002 
210 9 0.0109691 0.108022 -0.0323053 0 0 0 0.0400999 -0.012765 0.0989471 0.00172092 -0.000789581 0.000319055 1 1 0 0 0 0 0 0 0 0 0 0 0 0 0 0 109 0.002 
935 1 0.0168578 0.108016 -0.0329848 0 0 0 0.0440099 0.00329442 0.036468 0.000200794 0.00135218 0.000493708 0 1 0 0 0 0 0 0 0 0 0 0 0 0 0 0 140 0.002 
857 11 0.00643966 0.0771888 -0.0314751 0 0 0 -0.139392 0.181411 0.223718 0.0153622 0.0569689 0.0417273 0 0 0 1 0 0 0 0 0 0 1 0 0 0 0 0 165 0.002 
797 15 0.0126678 0.0811722 -0.0305288 0 0 0 -0.414773 0.419212 -0.519879 0 -0.000164368 0 0 0 0 0 0 0 0 0 0 0 0 0 0 0 0 0 216 0.002 
1080 3 0.00375227 0.0829098 -0.0298921 0 0 0 -0.444356 -0.575622 0.507148 0 -0.000164368 0 0 0 0 0 0 0 0 0 0 0 0 0 0 0 0 0 173 0.002 
2352 3 0.0163342 0.0828064 -0.0298256 0 0 0 1.30746 -0.394782 0.4463 0 -0.000164368 0 0 0 0 0 0 0 0 0 0 0 0 0 0 0 0 0 0 0.002 
619 7 0.0138534 0.0862047 -0.0294492 0 0 0 0.657913 -0.771847 -0.0668996 -0.00645679 0.00138276 0.00222197 0 0 0 0 0 0 0 0 0 0 0 0 0 0 0 0 136 0.002 
143 8 0.0157184 0.0897843 -0.0294533 0 0 0 -0.104339 -0.253745 0.440281 0 -0.000164368 0 0 0 0 0 0 0 0 0 0 0 0 0 0 0 0 0 165 0.002 
1352 5 0.00701868 0.0929664 -0.0309455 0 0 0 -0.101911 -0.091831 -0.0645646 0.036647 0.0207057 0.0296614 0 0 1 0 1 0 0 0 0 0 0 0 0 0 0 0 108 0.002 
1645 1 0.0153896 0.093828 -0.0292789 0 0 0 0.145842 -0.030672 0.105007 0.00101613 -0.000499388 9.04939e-05 0 0 0 0 0 0 0 0 0 0 0 0 0 0 0 0 110 0.002 
121 8 0.00538119 0.0964102 -0.0297684 0 0 0 0.0742669 0.0449097 0.160449 0.00144489 -0.00414821 -0.00626007 0 0 0 0 1 0 0 2 0 0 0 0 0 0 0 0 179 0.002 
708 2 0.00926111 0.0972289 -0.0293034 0 0 0 0.0223317 0.179982 0.100403 -0.00815281 -0.00173558 0.000332509 0 3 0 0 0 0 0 1 0 0 0 0 0 0 0 0 166 0.002 
1662 8 0.0114325 0.100578 -0.0294117 0 0 0 -0.0592208 0.185196 -0.081191 0.000495369 -0.00529563 -0.00223249 0 1 1 0 0 0 0 2 0 0 0 0 0 0 0 0 81 0.002 
476 2 0.0156093 0.0987773 -0.0310319 0 0 0 0.0182173 0.0272131 0.101559 0.000106451 -0.000367103 5.15672e-05 0 1 0 0 0 0 0 0 0 0 0 0 0 0 1 0 196 0.002 
197 4 0.00299524 0.101784 -0.0298143 0 0 0 0.016113 -0.0205301 0.0505291 0.00243387 -0.000346346 -0.000366906 0 0 0 1 0 0 0 0 0 0 0 1 0 0 0 0 149 0.002 
2296 9 0.0150378 0.102351 -0.0293374 0 0 0 0.0855909 0.0746823 0.103745 0.000332986 -0.000701796 -0.00154258 0 1 0 0 0 0 0 0 1 0 0 0 0 0 0 0 12 0.002 
1308 1 0.00626373 0.10427 -0.0306887 0 0 0 -0.078291 0.0116442 0.0646473 -0.0036317 0.00340182 0.0024458 0 0 0 0 0 1 0 0 0 0 0 0 0 0 0 0 121 0.002 
1554 1 0.0175831 0.105361 -0.0300306 0 0 0 0.12766 -0.0162291 0.0872224 0 -0.000164368 0 0 0 0 0 0 0 0 0 0 0 0 0 0 0 0 0 105 0.002 
1417 4 0.00308443 0.107994 -0.0314911 0 0 0 -0.00437732 -0.0301405 0.0412872 0 -0.000164368 0 0 0 0 0 0 0 0 0 0 0 0 0 0 0 0 0 82 0.002 
1495 4 0.0143359 0.107983 -0.0298378 0 0 0 0.0373411 -0.0368916 0.0749724 0 -0.000164368 0 0 0 0 0 0 0 0 0 0 0 0 0 0 0 0 0 109 0.002 
1551 2 0.0128096 0.0764044 -0.0288524 0 0 0 -0.758603 2.34741 0.246759 0 -0.000164368 0 0 0 0 0 0 0 0 0 0 0 0 0 0 0 0 0 81 0.002 
531 1 0.00343343 0.078721 -0.0280827 0 0 0 -0.675435 -0.366541 1.68507 0 -0.000164368 0 0 0 0 0 0 0 0 0 0 0 0 0 0 0 0 0 157 0.002 
2199 10 0.00909782 0.0824808 -0.0285883 0 0 0 0.35929 0.307582 0.617773 0.00203801 -0.000675146 0.00984608 0 0 0 0 0 1 0 0 0 0 0 0 0 0 0 0 24 0.002 
20 3 0.00303369 0.0870042 -0.0289765 0 0 0 0.0919137 -0.22938 0.0752309 0.000953561 -0.000938109 -0.00239979 0 1 0 0 0 0 0 0 0 0 0 0 0 0 0 0 60 0.002 
1471 6 0.00744811 0.0883492 -0.0291506 0 0 0 0.106203 -0.0824864 -0.111173 0.00534812 -0.012004 -0.00452593 0 0 0 0 0 1 0 0 0 0 0 0 0 0 0 0 137 0.002 
1226 1 0.00447217 0.0906335 -0.0278267 0 0 0 0.141344 -0.0531213 0.233553 0.0244184 -0.0194798 0.00342461 1 0 0 0 0 1 0 0 0 0 0 0 0 0 0 0 139 0.002 
2310 7 0.0111822 0.0937464 -0.0290786 0 0 0 0.00655541 0.106728 0.180815 0.00159611 -0.00930325 0.00348585 0 1 1 0 0 0 2 0 0 0 0 0 0 0 0 0 4 0.002 
29 5 0.00297624 0.0942701 -0.0273878 0 0 0 0.00433821 0.0781485 0.14623 0.0268198 0.00287364 -0.00205069 1 0 0 0 0 0 0 0 0 0 0 0 0 0 0 0 177 0.002 
542 6 0.00694176 0.0937469 -0.0270039 0 0 0 0.069281 -0.0222166 -0.108303 0 -0.000164368 0 0 0 0 0 0 0 0 0 0 0 0 0 0 0 0 0 135 0.002 
1388 4 0.01313 0.097142 -0.0283497 0 0 0 0.0740395 0.258884 0.0198596 -0.0102496 -0.0058283 -0.00450537 0 1 0 1 0 0 1 1 0 0 0 0 0 0 0 0 166 0.002 
1465 8 0.0168878 0.0968941 -0.0271178 0 0 0 0.128813 0.151032 0.0593854 0.00144393 -0.00405413 -0.00682744 0 0 0 1 0 0 0 2 0 0 0 0 0 0 0 0 113 0.002 
983 12 0.00299512 0.098544 -0.0273991 0 0 0 -0.00671594 0.0255793 0.190169 0.00218914 -0.0015442 -0.00157982 0 0 0 0 0 0 0 1 0 0 0 2 0 0 0 0 164 0.002 
2308 8 0.00706396 0.10071 -0.0290338 0 0 0 0.0856655 -0.0401168 0.0289397 0 -0.000164368 0 0 0 0 0 0 0 0 0 0 0 0 0 0 0 0 0 8 0.002 
1913 2 0.0030061 0.105241 -0.0278031 0 0 0 0.00374579 -0.0201988 0.0928968 -5.23045e-05 -0.000211182 -0.000635536 0 0 0 1 0 0 0 0 0 0 0 0 0 0 0 0 60 0.002 
826 1 0.0097568 0.104122 -0.0287682 0 0 0 -0.109564 0.126116 0.161441 0.00230776 -0.0209034 -0.00366577 2 0 0 0 0 0 0 1 0 0 0 0 0 0 0 0 141 0.002 
1956 4 0.0132939 0.105199 -0.0271475 0 0 0 0.0510716 0.0511012 0.170878 0.00323138 -0.000375979 -0.00410975 0 0 0 3 0 0 0 0 1 0 0 0 0 0 0 0 54 0.002 
1654 7 0.00607375 0.108012 -0.0288307 0 0 0 0.028936 -0.00772024 0.0608855 0.00165326 -0.0209585 -0.000452848 0 0 0 0 0 0 1 0 0 0 0 0 0 0 0 0 92 0.002 
1418 5 0.0102317 0.108021 -0.0282093 0 0 0 -0.0415728 0.0432897 0.114185 -0.00101081 -0.0156831 0.00228357 1 0 0 0 0 0 0 0 0 0 0 0 0 0 0 0 112 0.002 
1973 9 0.0171828 0.107986 -0.0269949 0 0 0 0.0247176 -0.0257507 0.147934 0 -0.000164368 0 0 0 0 0 0 0 0 0 0 0 0 0 0 0 0 0 45 0.002 
1763 2 0.00733741 0.0781392 -0.0245416 0 0 0 -4.07809 2.27635 1.80774 0 -0.000164368 0 0 0 0 0 0 0 0 0 0 0 0 0 0 0 0 0 70 0.002 
1772 5 0.0061162 0.0834281 -0.0260458 0 0 0 -0.175319 0.598741 0.232338 0 -0.000164368 0 0 0 0 0 0 0 0 0 0 0 0 0 0 0 0 0 91 0.002 
156 4 0.015169 0.0842208 -0.0257853 0 0 0 0.718741 -0.833219 -0.398714 0 -0.000164368 0 0 0 0 0 0 0 0 0 0 0 0 0 0 0 0 0 207 0.002 
333 2 0.00748242 0.0876933 -0.0251455 0 0 0 0.718608 1.15366 0.689114 0 -0.000164368 0 0 0 0 0 0 0 0 0 0 0 0 0 0 0 0 0 135 0.002 
568 7 0.0111604 0.0870868 -0.0266369 0 0 0 0.635703 -0.577091 0.203975 -0.00980877 -0.0258385 -0.0337589 0 0 0 0 0 0 0 0 0 0 0 0 0 0 0 0 82 0.002 
925 7 0.0103659 0.0910724 -0.0262372 0 0 0 -0.0304642 -0.253581 -0.111578 -0.000764033 -0.00748912 0.00275279 0 0 0 0 0 0 0 0 0 0 0 0 0 0 0 0 170 0.002 
1904 6 0.0145051 0.0899576 -0.0252773 0 0 0 -0.28825 0.0832518 0.689337 0.000851006 -0.0142156 -0.00724141 0 0 0 0 0 2 0 0 0 0 0 0 0 0 0 0 43 0.002 
190 5 0.0103193 0.0957152 -0.025729 0 0 0 -0.0471482 0.114788 0.229821 -0.000278521 -0.00352494 -0.00605229 0 0 0 0 2 0 1 0 0 0 0 0 0 0 0 0 167 0.002 
2305 8 0.0141375 0.0939111 -0.0254802 0 0 0 -0.14265 0.300138 -0.0491375 0.00239953 0.0133913 -0.00145899 0 0 0 0 0 1 0 1 0 0 0 0 0 0 0 0 3 0.002 
2093 7 0.00664762 0.0981123 -0.0258196 0 0 0 0.0773764 -0.0667364 0.0329365 0 -0.000164368 0 0 0 0 0 0 0 0 0 0 0 0 0 0 0 0 0 69 0.002 
1090 6 0.00971407 0.10072 -0.025761 0 0 0 0.130935 -0.099047 0.201855 -0.00387548 -0.00201765 -0.00562077 0 0 0 0 0 1 0 0 0 0 0 0 0 0 0 0 132 0.002 
2119 1 0.00302501 0.102002 -0.0254091 0 0 0 0.00843971 0.0631517 0.082474 -0.00282657 0.00471406 0.00448646 0 0 0 0 0 0 0 0 0 0 0 1 0 0 0 0 54 0.002 
1987 8 0.0170834 0.100959 -0.0261894 0 0 0 0.0142371 0.0391847 0.199043 0 -0.000164368 0 0 0 0 0 0 0 0 0 0 0 0 0 0 0 0 0 55 0.002 
602 8 0.00651994 0.103851 -0.0264474 0 0 0 0.00806291 -0.0118711 0.206564 0.00196612 0.00410916 -0.00395537 1 0 0 0 0 0 0 1 0 0 0 0 0 0 0 0 210 0.002 
1943 1 0.0100576 0.104868 -0.0248277 0 0 0 -0.00453605 0.186416 -0.0162568 -0.00419139 -0.00423973 0.000599466 1 0 0 1 0 0 0 0 0 0 0 0 0 0 0 0 70 0.002 
1665 2 0.00307514 0.107999 -0.0249094 0 0 0 -0.0145164 -0.00976473 0.107826 2.50623e-07 -0.000164975 -3.43031e-07 0 0 0 0 0 0 0 0 0 0 0 0 0 0 0 0 99 0.002 
168 2 0.00729814 0.108002 -0.0250252 0 0 0 -0.103364 -0.119269 0.157248 0.000131498 0.00695942 -0.000844534 0 0 0 0 0 0 1 0 0 0 0 0 0 0 0 0 127 0.002 
288 6 0.0116321 0.0797266 -0.0229037 0 0 0 -0.12484 -0.705623 1.42385 0 -0.000164368 0 0 0 0 0 0 0 0 0 0 0 0 0 0 0 0 0 184 0.002 
2343 4 0.01119 0.0834506 -0.0248182 0 0 0 1.50872 -0.570018 -0.945512 0 -0.000164368 0 0 0 0 0 0 0 0 0 0 0 0 0 0 0 0 0 0 0.002 
1791 6 0.0162926 0.0870478 -0.0222935 0 0 0 -1.37381 1.13712 0.0613784 0 -0.000164368 0 0 0 0 0 0 0 0 0 0 0 0 0 0 0 0 0 65 0.002 
1533 7 0.0120895 0.0878225 -0.0228502 0 0 0 0.0261873 -0.673208 0.25724 0.0162656 0.0239626 0.0315369 0 0 0 0 0 0 0 0 0 0 0 0 0 0 0 0 93 0.002 
1910 2 0.00300862 0.0898199 -0.0241676 0 0 0 0.0404598 -0.308431 0.357554 -0.000112836 -0.000430462 -0.000162516 0 0 0 0 0 0 0 0 0 0 0 0 0 0 0 0 66 0.002 
251 5 0.00673981 0.091244 -0.022684 0 0 0 0.0799018 -0.0483642 0.588332 0 -0.000164368 0 0 0 0 0 0 0 0 0 0 0 0 0 0 0 0 0 216 0.002 
2090 4 0.0113526 0.0930035 -0.022674 0 0 0 0.0239169 -0.259929 0.22014 0 -0.000164368 0 0 0 0 0 0 0 0 0 0 0 0 0 0 0 0 0 40 0.002 
647 2 0.00315552 0.0937397 -0.0233899 0 0 0 0.0851389 -0.259595 0.0808098 -0.00465636 -0.00124167 -0.000909386 0 1 0 0 0 0 0 0 0 0 0 0 0 0 0 0 168 0.002 
339 6 0.00730815 0.0951738 -0.0231831 0 0 0 -0.0426181 -0.0380015 0.113875 0.00118406 0.00356341 0.00737404 0 0 0 0 1 1 0 0 0 0 0 0 0 0 0 0 201 0.002 
1765 6 0.00300003 0.0981406 -0.0234224 0 0 0 0.00769263 -0.132695 0.191359 -0.000100798 -7.13484e-05 0.000334989 0 0 0 0 0 0 0 0 0 0 0 1 0 0 0 0 107 0.002 
771 4 0.0130005 0.0983333 -0.0243837 0 0 0 0.173602 -0.0165933 0.24113 0.000770131 -0.00176778 -0.0035076 0 0 0 3 1 0 0 0 0 0 0 0 0 0 0 0 165 0.002 
306 5 0.0158532 0.0961519 -0.022645 0 0 0 0.213096 -0.0984164 0.0740669 -0.00440976 0.0343932 -0.00568932 0 0 0 1 1 0 0 0 0 0 0 0 0 0 0 0 199 0.002 
527 2 0.0163432 0.100231 -0.0223167 0 0 0 0.0582418 -0.191446 0.194307 0 -0.000164368 0 0 0 0 0 0 0 0 0 0 0 0 0 0 0 0 0 185 0.002 
1049 6 0.00665844 0.101344 -0.0232489 0 0 0 0.029869 -0.0971308 0.123924 -0.00035453 -7.53566e-05 -0.000378558 0 0 0 0 0 1 0 0 0 0 0 0 0 0 0 0 141 0.002 
1056 1 0.0135475 0.102275 -0.0244358 0 0 0 0.142979 -0.00798577 0.0830077 -0.00263869 -0.000750994 -0.00239277 2 0 0 2 0 0 0 0 0 0 0 0 0 0 0 0 128 0.002 
804 4 0.00465268 0.104817 -0.0230572 0 0 0 -0.00675945 -0.0400331 0.125284 -0.00759105 -0.000659052 0.00738681 0 0 0 2 0 0 0 1 0 0 0 0 0 0 0 0 129 0.002 
1166 7 0.0162048 0.104987 -0.0232339 0 0 0 0.0773976 0.0330394 0.0712374 0.000197632 0.0032826 -0.00223649 1 0 0 0 0 0 2 0 0 0 0 0 0 0 0 0 168 0.002 
1122 3 0.0130746 0.108004 -0.0243172 0 0 0 0.0280176 0.0166493 0.213575 0.000635013 -0.000636352 -0.00147842 0 0 0 1 0 0 0 0 0 0 0 0 0 0 0 0 116 0.002 
223 8 0.0129481 0.0834822 -0.0206492 0 0 0 -0.205277 0.191608 -0.880066 0 -0.000164368 0 0 0 0 0 0 0 0 0 0 0 0 0 0 0 0 0 204 0.002 
670 1 0.0154847 0.0922196 -0.0221296 0 0 0 -0.121369 0.499965 0.0954096 0.000598623 -0.0441722 0.0131098 1 0 0 0 1 1 0 1 0 0 0 0 0 0 0 0 194 0.002 
1804 8 0.004922 0.0948968 -0.0200029 0 0 0 0.0570249 -0.0997841 0.0701919 -0.0106008 -0.00560313 0.00211302 0 1 0 0 0 1 0 0 0 0 0 0 0 0 0 0 102 0.002 
1139 3 0.010469 0.097049 -0.0215736 0 0 0 0.0547412 -0.106213 0.0927338 0.000498481 0.0013774 -0.000384946 0 0 1 1 0 0 0 0 0 0 0 0 0 0 0 0 158 0.002 
2123 6 0.0186269 0.0864061 -0.0189919 0 0 0 -0.860672 -0.186068 0.077866 0 -0.000164368 0 0 0 0 0 0 0 0 0 0 0 0 0 0 0 0 0 62 0.002 
1568 8 0.00678549 0.0983926 -0.0205273 0 0 0 0.0876243 -0.0872662 0.187344 9.49201e-05 0.000759406 -0.000757135 0 0 0 0 0 0 0 1 0 0 0 0 0 0 0 0 115 0.002 
734 1 0.00300422 0.101582 -0.0213825 0 0 0 0.0284266 -0.0581765 0.121289 0.000185415 0.00020545 -0.000328781 1 0 0 1 0 0 0 0 0 0 0 0 0 0 0 0 140 0.002 
852 7 0.0103846 0.101056 -0.0218406 0 0 0 0.0777961 -0.100497 0.16401 0.00423001 0.00159991 0.00599933 0 0 0 0 0 2 0 0 0 0 0 0 0 0 0 0 164 0.002 
1582 8 0.00814964 0.104388 -0.0211139 0 0 0 0.0291195 -0.0310161 0.158669 0 -0.000164368 0 0 0 0 0 0 0 0 0 0 0 0 0 0 0 0 0 110 0.002 
429 8 0.0125177 0.104977 -0.0216847 0 0 0 0.0110189 -0.0160119 0.00924512 -0.00238015 -0.00254972 -0.000603799 2 0 0 0 0 0 1 2 0 0 0 0 0 0 0 0 100 0.002 
962 1 0.00597879 0.108002 -0.0210352 0 0 0 -0.0332488 -0.00625432 0.144978 0.000286942 -0.00140909 -0.00137989 2 0 0 1 0 0 0 0 0 0 0 0 0 0 0 0 154 0.002 
2216 2 0.00995231 0.108009 -0.0214526 0 0 0 0.00373135 -0.000529535 0.0335965 -0.00209796 4.73555e-05 0.000740587 1 0 0 0 0 0 0 1 0 0 0 0 0 0 0 0 17 0.002 
814 6 0.00944135 0.0813238 -0.0196477 0 0 0 -1.91097 0.721569 0.528603 0 -0.000164368 0 0 0 0 0 0 0 0 0 0 0 0 0 0 0 0 0 197 0.002 
718 2 0.00534261 0.0874642 -0.0192301 0 0 0 -0.954469 -1.42892 0.530722 0 -0.000164368 0 0 0 0 0 0 0 0 0 0 0 0 0 0 0 0 0 158 0.002 
1681 3 0.0102145 0.0870646 -0.0186339 0 0 0 -1.37719 0.222771 0.522129 0 -0.000164368 0 0 0 0 0 0 0 0 0 0 0 0 0 0 0 0 0 97 0.002 