ITEM: TIMESTEP
19000000
ITEM: NUMBER OF ATOMS
2296
ITEM: BOX BOUNDS ff ff ff
-0.01 0.45
-0.15 0.15
-0.08 0.1
ITEM: ATOMS id type x y z ix iy iz vx vy vz fx fy fz c_cc_1 c_cc_2 c_cc_3 c_cc_4 c_cc_5 c_cc_6 c_cc_7 c_cc_8 c_cc_9 c_cc_10 c_cc_11 c_cc_12 c_cc_13 c_cc_14 c_cc_15 c_cc_16 f_fppacc radius 
361 2 0.0138853 -0.055123 -0.0172081 0 0 0 1.19147 -8.31863 13.7188 0 -0.000164368 0 0 0 0 0 0 0 0 0 0 0 0 0 0 0 0 0 176 0.002 
1775 3 0.0145729 -0.0559525 -0.00703815 0 0 0 0.116995 0.43991 10.0231 0 -0.000164368 0 0 0 0 0 0 0 0 0 0 0 0 0 0 0 0 0 62 0.002 
974 12 0.00382388 -0.0575776 0.00262553 0 0 0 0.145568 0.623732 11.7999 0 -0.000164368 0 0 0 0 0 0 0 0 0 0 0 0 0 0 0 0 0 164 0.002 
1763 2 0.0122644 -0.057084 0.00387132 0 0 0 0.843164 -1.51548 8.86103 0 -0.000164368 0 0 0 0 0 0 0 0 0 0 0 0 0 0 0 0 0 70 0.002 
1287 9 0.0108673 0.0314801 -0.0492204 0 0 0 0.579744 3.20016 -3.94915 -0.202813 0.921865 2.39321 0 0 0 0 0 0 0 0 0 0 0 0 0 0 0 0 154 0.002 
1278 4 0.0182777 0.0200233 -0.0455825 0 0 0 0.0184321 -12.8516 4.38328 0 -0.000164368 0 0 0 0 0 0 0 0 0 0 0 0 0 0 0 0 0 126 0.002 
2354 3 0.00972056 0.014554 -0.0326311 0 0 0 0.653247 -5.41089 -2.65494 0 -0.000164368 0 0 0 0 0 0 0 0 0 0 0 0 0 0 0 0 0 0 0.002 
1625 3 0.0107287 0.0218637 -0.0274147 0 0 0 0.942783 -7.43193 -13.1252 0 -0.000164368 0 0 0 0 0 0 0 0 0 0 0 0 0 0 0 0 0 98 0.002 
1827 4 0.0150711 0.0337209 -0.0268775 0 0 0 1.30349 -1.24608 0.0349709 0 -0.000164368 0 0 0 0 0 0 0 0 0 0 0 0 0 0 0 0 0 79 0.002 
2351 11 0.0123057 0.0373609 -0.0223978 0 0 0 0.462456 -1.92612 0.444359 0 -0.000164368 0 0 0 0 0 0 0 0 0 0 0 0 0 0 0 0 0 0 0.002 
80 1 0.0111778 0.0353878 -0.0178798 0 0 0 0.261771 -1.8482 0.677631 0 -0.000164368 0 0 0 0 0 0 0 0 0 0 0 0 0 0 0 0 0 84 0.002 
2374 6 0.0110954 0.0327583 0.0123936 0 0 0 5.85243 -8.01862 12.1618 0 -0.000164368 0 0 0 0 0 0 0 0 0 0 0 0 0 0 0 0 0 0 0.002 
2322 1 0.00357832 0.000543776 0.0574293 0 0 0 4.01416 29.7767 0.156896 0 -0.000164368 0 0 0 0 0 0 0 0 0 0 0 0 0 0 0 0 0 0 0.002 
665 4 0.0179948 0.0513015 -0.035504 0 0 0 -1.2974e-10 -1.32674e-10 1.09065e-12 2.38442e-11 2.31596e-11 6.75016e-13 0 0 0 2 0 0 0 0 0 0 0 0 0 0 0 0 284 0.002 
393 1 0.0137449 0.0541007 -0.0355 0 0 0 -2.95376e-46 6.05973e-20 -3.37593e-12 -6.11126e-46 0 0 0 0 0 0 0 0 0 0 0 0 0 0 0 0 0 0 1 0.002 
1145 2 0.0126121 0.0650933 -0.0355 0 0 0 -2.57307e-34 2.63939e-19 1.69033e-12 -8.00213e-34 -1.35525e-20 0 0 0 0 0 0 0 0 0 0 0 0 0 0 0 0 0 4 0.002 
465 6 0.016956 0.0642925 -0.0355038 0 0 0 2.9279e-16 7.35983e-16 -3.36423e-12 0 0 0 0 0 0 0 0 1 0 0 0 0 0 0 0 0 0 0 27 0.002 
1907 4 0.00690405 0.0422214 -0.0320621 0 0 0 0.349165 -1.23726 0.145807 0 -0.000164368 0 0 0 0 0 0 0 0 0 0 0 0 0 0 0 0 0 98 0.002 
1070 2 0.0146122 0.0458576 -0.0305313 0 0 0 1.17077 -0.242974 -0.234721 0 -0.000164368 0 0 0 0 0 0 0 0 0 0 0 0 0 0 0 0 0 126 0.002 
718 2 0.00335017 0.0665712 -0.0309002 0 0 0 -0.483886 -1.27148 -0.234698 -0.54902 -0.208771 -0.786324 0 1 0 0 0 0 0 0 0 0 0 0 0 0 0 0 160 0.002 
2194 3 0.0143903 0.0667508 -0.0298801 0 0 0 0.569203 -0.25726 0.708311 0 -0.000164368 0 0 0 0 0 0 0 0 0 0 0 0 0 0 0 0 0 36 0.002 
1292 4 0.0110932 0.0629064 -0.02734 0 0 0 0.558545 -0.660511 0.652916 0 -0.000164368 0 0 0 0 0 0 0 0 0 0 0 0 0 0 0 0 0 152 0.002 
1980 13 0.0043817 0.0658329 -0.0272688 0 0 0 -2.33354 0.342511 -5.81882 0.54902 0.208442 0.786324 0 1 0 0 0 0 0 0 0 0 0 0 0 0 0 0 36 0.002 
288 6 0.00807182 0.04886 -0.026169 0 0 0 -0.17867 -1.64038 0.478703 0 -0.000164368 0 0 0 0 0 0 0 0 0 0 0 0 0 0 0 0 0 184 0.002 
2208 4 0.00864327 0.0534309 -0.0250833 0 0 0 0.783962 -2.16415 -2.4442 0 -0.000164368 0 0 0 0 0 0 0 0 0 0 0 0 0 0 0 0 0 27 0.002 
1990 2 0.0059894 0.0734632 -0.024914 0 0 0 0.421583 0.348869 1.03836 -0.154556 -0.198381 -0.679414 0 1 0 0 0 0 0 0 0 0 0 0 0 0 0 0 62 0.002 
1377 3 0.00493674 0.0718692 -0.0214197 0 0 0 -3.47215 3.71922 -9.29498 0.154556 0.198052 0.679414 0 1 0 0 0 0 0 0 0 0 0 0 0 0 0 0 113 0.002 
618 9 0.0164557 0.0737093 -0.0220852 0 0 0 -3.48948 0.372856 -1.3859 -0.00275446 -9.70284e-05 0.00302875 0 0 0 0 0 0 0 0 1 0 0 0 0 0 0 0 159 0.002 
1339 1 0.0149653 0.057873 -0.0178305 0 0 0 1.2444 -0.831918 2.30841 0 -0.000164368 0 0 0 0 0 0 0 0 0 0 0 0 0 0 0 0 0 99 0.002 
1587 4 0.0152535 0.0745425 -0.0183763 0 0 0 -2.57276 -0.397409 -0.634884 0.00275446 -0.000231708 -0.00302875 0 0 0 0 0 0 0 0 1 0 0 0 0 0 0 0 133 0.002 
1172 2 0.0104597 0.0581262 -0.0164432 0 0 0 0.616908 -0.694274 0.860737 0 -0.000164368 0 0 0 0 0 0 0 0 0 0 0 0 0 0 0 0 0 130 0.002 
2026 8 0.0065514 0.05917 -0.0157289 0 0 0 -0.0601107 -1.06097 1.54033 0 -0.000164368 0 0 0 0 0 0 0 0 0 0 0 0 0 0 0 0 0 53 0.002 
157 4 0.0161284 0.0459368 -0.0135895 0 0 0 0.5329 -1.15909 -1.89009 0 -0.000164368 0 0 0 0 0 0 0 0 0 0 0 0 0 0 0 0 0 73 0.002 
918 8 0.0185902 0.0626973 -0.0152941 0 0 0 -2.90884 -1.86125 -2.91742 0 -0.000164368 0 0 0 0 0 0 0 0 0 0 0 0 0 0 0 0 0 202 0.002 
1860 5 0.0135613 0.0630488 -0.0114878 0 0 0 -0.836556 -0.972589 -1.15133 0 -0.000164368 0 0 0 0 0 0 0 0 0 0 0 0 0 0 0 0 0 43 0.002 
1347 3 0.0110757 0.0739138 -0.00942509 0 0 0 -2.06606 1.07954 -3.15987 0 -0.000164368 0 0 0 0 0 0 0 0 0 0 0 0 0 0 0 0 0 146 0.002 
112 3 0.00434143 0.0724087 -0.00716111 0 0 0 0.620525 -0.468166 -1.43248 0 -0.000164368 0 0 0 0 0 0 0 0 0 0 0 0 0 0 0 0 0 94 0.002 
1785 4 0.00495022 0.0457681 -0.00401977 0 0 0 -1.28754 -1.45326 5.5968 0 -0.000164368 0 0 0 0 0 0 0 0 0 0 0 0 0 0 0 0 0 79 0.002 
2224 3 0.0075614 0.05371 0.000327059 0 0 0 12.4735 0.245229 22.6922 0 -0.000164368 0 0 0 0 0 0 0 0 0 0 0 0 0 0 0 0 0 3 0.002 
1170 3 0.0142569 0.073739 0.000518736 0 0 0 -0.624422 0.17491 -0.773035 0 -0.000164368 0 0 0 0 0 0 0 0 0 0 0 0 0 0 0 0 0 131 0.002 
259 6 0.0166447 0.0533046 0.00216211 0 0 0 -2.97333 -4.80122 5.80883 0 -0.000164368 0 0 0 0 0 0 0 0 0 0 0 0 0 0 0 0 0 146 0.002 
2045 3 0.0134647 0.0662369 0.00107121 0 0 0 -2.07103 0.285785 -2.41404 0 -0.000164368 0 0 0 0 0 0 0 0 0 0 0 0 0 0 0 0 0 44 0.002 
186 5 0.016605 0.0682472 0.00264318 0 0 0 -2.2075 -2.86509 0.978684 0 -0.000164368 0 0 0 0 0 0 0 0 0 0 0 0 0 0 0 0 0 95 0.002 
816 10 0.0126918 0.0705786 0.00329513 0 0 0 0.418491 -0.505812 -3.22007 0 -0.000164368 0 0 0 0 0 0 0 0 0 0 0 0 0 0 0 0 0 215 0.002 
1098 3 0.0058006 0.0726691 0.00392696 0 0 0 0.26535 0.75192 -2.55184 0 -0.000164368 0 0 0 0 0 0 0 0 0 0 0 0 0 0 0 0 0 151 0.002 
1137 1 0.00628865 0.0632006 0.00729399 0 0 0 0.581603 -1.83727 0.392436 0 -0.000164368 0 0 0 0 0 0 0 0 0 0 0 0 0 0 0 0 0 171 0.002 
1667 1 0.00450103 0.0687559 0.00923659 0 0 0 -0.0200704 -0.018283 -1.85174 0 -0.000164368 0 0 0 0 0 0 0 0 0 0 0 0 0 0 0 0 0 80 0.002 
1655 2 0.0161677 0.0693138 0.00796766 0 0 0 -0.353787 -0.166345 -0.555508 0 -0.000164368 0 0 0 0 0 0 0 0 0 0 0 0 0 0 0 0 0 83 0.002 
917 8 0.00679253 0.0749371 0.00910269 0 0 0 -0.0986588 0.333768 -1.28562 0 -0.000164368 0 0 0 0 0 0 0 0 0 0 0 0 0 0 0 0 0 206 0.002 
1199 5 0.0147192 0.0739881 0.00810169 0 0 0 -0.616465 -0.126715 -0.291021 0 -0.000164368 0 0 0 0 0 0 0 0 0 0 0 0 0 0 0 0 0 144 0.002 
1962 3 0.0160715 0.0659187 0.0113855 0 0 0 -0.238514 -0.183156 -0.75681 0 -0.000164368 0 0 0 0 0 0 0 0 0 0 0 0 0 0 0 0 0 65 0.002 
1865 2 0.00298096 0.0746711 0.0115638 0 0 0 0.0690835 0.118415 -0.135197 0.0214848 -0.00127697 0.00968353 0 0 0 0 0 0 0 0 0 0 0 0 0 0 0 0 61 0.002 
1032 3 0.0176407 0.0732329 0.0109569 0 0 0 -0.324319 -0.118659 -0.665189 0 -0.000164368 0 0 0 0 0 0 0 0 0 0 0 0 0 0 0 0 0 190 0.002 
1011 6 0.0113872 0.0654416 0.0140479 0 0 0 -2.30583 -1.12963 -1.61901 0 -0.000164368 0 0 0 0 0 0 0 0 0 0 0 0 0 0 0 0 0 160 0.002 
1369 2 0.0174928 0.0694147 0.013515 0 0 0 -0.305402 -0.502835 -0.631434 0 -0.000164368 0 0 0 0 0 0 0 0 0 0 0 0 0 0 0 0 0 129 0.002 
359 2 0.0037961 0.0708918 0.01257 0 0 0 0.587724 0.0392149 -1.60491 0.00545209 -0.00831025 -0.000196656 0 0 0 0 0 0 0 0 0 0 0 0 0 0 0 0 162 0.002 
1374 5 0.0137059 0.0721698 0.0130053 0 0 0 -0.645046 -0.0643555 -0.424959 0 -0.000164368 0 0 0 0 0 0 0 0 0 0 0 0 0 0 0 0 0 141 0.002 
1805 4 0.00699706 0.0733126 0.0129083 0 0 0 -0.962866 1.00729 -1.57637 0 -0.000164368 0 0 0 0 0 0 0 0 0 0 0 0 0 0 0 0 0 102 0.002 
1080 3 0.0182011 0.0639431 0.0151208 0 0 0 6.74883 9.7418 -12.3153 0 -0.000164368 0 0 0 0 0 0 0 0 0 0 0 0 0 0 0 0 0 173 0.002 
519 4 0.00885487 0.0703653 0.0154088 0 0 0 -1.11503 0.518253 -0.496501 0 -0.000164368 0 0 0 0 0 0 0 0 0 0 0 0 0 0 0 0 0 131 0.002 
2103 5 0.00358454 0.0744521 0.0161764 0 0 0 0.0403532 0.344335 -0.0190049 0 -0.000164368 0 0 0 0 0 0 0 0 0 0 0 0 0 0 0 0 0 54 0.002 
2271 5 0.00632062 0.0577019 0.0174142 0 0 0 0.288447 -0.414197 -0.38248 0 -0.000164368 0 0 0 0 0 0 0 0 0 0 0 0 0 0 0 0 0 1 0.002 
2228 13 0.016624 0.0714529 0.0173042 0 0 0 0.20724 -0.152266 -0.46801 0 -0.000164368 0 0 0 0 0 0 0 0 0 0 0 0 0 0 0 0 0 33 0.002 
425 5 0.0123109 0.0733453 0.0174696 0 0 0 -0.226155 0.101544 0.133078 0 -0.000164368 0 0 0 0 0 0 0 0 0 0 0 0 0 0 0 0 0 172 0.002 
2372 8 0.015941 0.0580297 0.0202525 0 0 0 -13.4116 21.0735 -25.7842 0 -0.000164368 0 0 0 0 0 0 0 0 0 0 0 0 0 0 0 0 0 0 0.002 
369 5 0.00919284 0.0653909 0.0193081 0 0 0 -5.90067 7.89298 -2.84178 0 -0.000164368 0 0 0 0 0 0 0 0 0 0 0 0 0 0 0 0 0 215 0.002 
1513 3 0.0100507 0.0692674 0.0206755 0 0 0 -0.385959 0.367187 -0.273176 0 -0.000164368 0 0 0 0 0 0 0 0 0 0 0 0 0 0 0 0 0 112 0.002 
1618 1 0.00383502 0.0719556 0.0193471 0 0 0 0.204994 -0.627479 -0.581907 0 -0.000164368 0 0 0 0 0 0 0 0 0 0 0 0 0 0 0 0 0 90 0.002 
1782 11 0.0135781 0.0701407 0.0228408 0 0 0 -0.112376 -0.119917 -0.253025 0 -0.000164368 0 0 0 0 0 0 0 0 0 0 0 0 0 0 0 0 0 102 0.002 
2126 3 0.00682781 0.0709764 0.0227081 0 0 0 -0.0850673 -0.122656 -0.229454 -6.83576e-05 -0.000417786 -7.82647e-05 0 0 1 0 0 0 0 0 0 0 0 0 0 0 0 0 55 0.002 
368 9 0.0178361 0.0739041 0.0218978 0 0 0 0.00875499 -0.193855 -0.0282476 0 -0.000164368 0 0 0 0 0 0 0 0 0 0 0 0 0 0 0 0 0 192 0.002 
517 2 0.00322129 0.0666743 0.0243226 0 0 0 0.00522731 -0.081936 -0.0614325 0 -0.000164368 0 0 0 0 0 0 0 0 0 0 0 0 0 0 0 0 0 203 0.002 
2063 1 0.0128784 0.066841 0.0251146 0 0 0 -0.037278 -0.182359 -0.213101 0 -0.000164368 0 0 0 0 0 0 0 0 0 0 0 0 0 0 0 0 0 39 0.002 
1721 2 0.00875281 0.0685886 0.0254925 0 0 0 -0.188688 -0.221285 -0.119836 0 -0.000164368 0 0 0 0 0 0 0 0 0 0 0 0 0 0 0 0 0 92 0.002 
1401 2 0.0171175 0.068389 0.0245754 0 0 0 -0.209348 -0.316248 -0.0846735 0 -0.000164368 0 0 0 0 0 0 0 0 0 0 0 0 0 0 0 0 0 153 0.002 
1541 1 0.00303441 0.0708764 0.0241522 0 0 0 -0.06266 -0.0215167 -0.0738267 0 -0.000164368 0 0 0 0 0 0 0 0 0 0 0 0 0 0 0 0 0 122 0.002 
2188 9 0.0177062 0.0722788 0.0256318 0 0 0 -0.108066 -0.244952 -0.0277505 0 -0.000164368 0 0 0 0 0 0 0 0 0 0 0 0 0 0 0 0 0 31 0.002 
2215 2 0.00685842 0.0740372 0.0252751 0 0 0 -0.236901 -0.326932 0.0928433 6.83576e-05 8.90501e-05 7.82647e-05 0 0 1 0 0 0 0 0 0 0 0 0 0 0 0 0 18 0.002 
395 6 0.013849 0.0741462 0.0236115 0 0 0 -0.122638 -0.12339 -0.0759465 0 -0.000164368 0 0 0 0 0 0 0 0 0 0 0 0 0 0 0 0 0 204 0.002 
1722 2 0.0117735 0.0723447 0.026887 0 0 0 0.0814545 -0.127236 -0.0360958 0 -0.000164368 0 0 0 0 0 0 0 0 0 0 0 0 0 0 0 0 0 64 0.002 
2111 2 0.00340355 0.0641501 0.0284588 0 0 0 0.021476 -0.221173 -0.0395481 0 -0.000164368 0 0 0 0 0 0 0 0 0 0 0 0 0 0 0 0 0 47 0.002 
1002 4 0.00804976 0.0652684 0.0288669 0 0 0 -0.0178013 -0.210694 -0.0309558 0 -0.000164368 0 0 0 0 0 0 0 0 0 0 0 0 0 0 0 0 0 147 0.002 
2196 9 0.0119897 0.0650289 0.0298983 0 0 0 -0.00101301 -0.309712 0.0636594 0 -0.000164368 0 0 0 0 0 0 0 0 0 0 0 0 0 0 0 0 0 53 0.002 
600 6 0.0169266 0.0660843 0.029016 0 0 0 0.172656 -0.397033 -0.13141 0 -0.000164368 0 0 0 0 0 0 0 0 0 0 0 0 0 0 0 0 0 228 0.002 
1487 2 0.0033135 0.069557 0.0284976 0 0 0 -0.158028 -0.0473621 0.0672468 0 -0.000164368 0 0 0 0 0 0 0 0 0 0 0 0 0 0 0 0 0 119 0.002 
1297 9 0.0144497 0.0695887 0.029204 0 0 0 -0.0143222 -0.376692 0.0203371 0 -0.000164368 0 0 0 0 0 0 0 0 0 0 0 0 0 0 0 0 0 115 0.002 
1505 2 0.00696225 0.0719646 0.0290421 0 0 0 0.0547644 -0.156444 -0.0429709 0 -0.000164368 0 0 0 0 0 0 0 0 0 0 0 0 0 0 0 0 0 110 0.002 
802 5 0.00299539 0.0737799 0.0285353 0 0 0 0.00665932 -0.14523 -0.0266419 -0.000774849 0.000353477 0.0023296 0 0 0 0 1 0 0 0 0 0 0 0 0 0 0 0 195 0.002 
114 10 0.0102347 0.0745913 0.0300913 0 0 0 -0.101486 -0.160203 -0.0257224 0 -0.000164368 0 0 0 0 0 0 0 0 0 0 0 0 0 0 0 0 0 186 0.002 
958 4 0.0145572 0.073904 0.029502 0 0 0 -0.171472 -0.183312 -0.0268914 -0.000397807 -0.000589368 0.000880469 0 0 0 1 0 0 0 0 0 0 0 0 0 0 0 0 177 0.002 
1107 6 0.0185488 0.0743839 0.0297788 0 0 0 -0.112999 -0.146413 -0.0302273 0.000168716 0.000168661 9.50866e-06 0 0 0 0 0 1 0 0 0 0 0 0 0 0 0 0 157 0.002 
1535 4 0.0153351 0.0593746 0.0306301 0 0 0 0.286459 0.540256 -0.443228 -0.00167751 -0.0178579 0.00798386 0 0 0 1 0 0 0 0 0 0 0 0 0 0 0 0 149 0.002 
1268 3 0.00598338 0.0652802 0.0323884 0 0 0 0.0736579 -0.157522 0.0216347 0.00263957 -0.00272003 -0.00243789 0 0 0 0 0 0 0 0 0 0 0 0 0 0 0 0 83 0.002 
1411 4 0.0108071 0.0705416 0.0305868 0 0 0 0.00975393 -0.221672 -0.000583703 0 -0.000164368 0 0 0 0 0 0 0 0 0 0 0 0 0 0 0 0 0 167 0.002 
233 7 0.0147418 0.0559686 0.0325997 0 0 0 -0.257667 0.0452826 -0.0404027 0.00167751 0.0175291 -0.00798386 0 0 0 1 0 0 0 0 0 0 0 0 0 0 0 0 112 0.002 
380 4 0.00341372 0.0575509 0.0326715 0 0 0 0.0282437 -0.365843 -0.0258657 0 -0.000164368 0 0 0 0 0 0 0 0 0 0 0 0 0 0 0 0 0 144 0.002 
1773 7 0.00872742 0.0572619 0.0327549 0 0 0 -0.0997863 -0.251328 -0.0109301 0 -0.000164368 0 0 0 0 0 0 0 0 0 0 0 0 0 0 0 0 0 78 0.002 
1053 1 0.0162137 0.062879 0.0329489 0 0 0 -0.14855 -0.266976 -0.0241912 0 -0.000164368 0 0 0 0 0 0 0 0 0 0 0 0 0 0 0 0 0 145 0.002 
1462 2 0.00987453 0.0672231 0.0327856 0 0 0 -0.00422916 -0.260871 0.0386902 0 -0.000164368 0 0 0 0 0 0 0 0 0 0 0 0 0 0 0 0 0 84 0.002 
300 1 0.0144773 0.0666498 0.0328238 0 0 0 -0.0409563 -0.151923 -0.0329762 0 -0.000164368 0 0 0 0 0 0 0 0 0 0 0 0 0 0 0 0 0 162 0.002 
783 1 0.0185005 0.0672352 0.032993 0 0 0 -0.0177192 -0.205827 -0.0129766 0 -0.000164368 0 0 0 0 0 0 0 0 0 0 0 0 0 0 0 0 0 153 0.002 
1929 3 0.00315653 0.0680603 0.0328755 0 0 0 0.0739146 -0.207897 -0.0887029 -0.00263957 0.00239129 0.00243789 0 0 0 0 0 0 0 0 0 0 0 0 0 0 0 0 43 0.002 
1387 4 0.00687483 0.0700001 0.0325932 0 0 0 0.0546144 -0.164668 -0.0305245 0 -0.000164368 0 0 0 0 0 0 0 0 0 0 0 0 0 0 0 0 0 143 0.002 
620 6 0.0031909 0.0721801 0.0328691 0 0 0 0.000452703 -0.136972 -0.0280814 0 -0.000164368 0 0 0 0 0 0 0 0 0 0 0 0 0 0 0 0 0 186 0.002 
854 6 0.0156726 0.0705556 0.0329883 0 0 0 -0.0328494 -0.0980736 0.00669636 0 -0.000164368 0 0 0 0 0 0 0 0 0 0 0 0 0 0 0 0 0 136 0.002 
2054 1 0.00677441 0.073997 0.032754 0 0 0 0.0353683 -0.158883 0.00983822 0 -0.000164368 0 0 0 0 0 0 0 0 0 0 0 0 0 0 0 0 0 49 0.002 
398 3 0.0127267 0.0732843 0.0330019 0 0 0 -0.146168 -0.187525 0.0464713 -0.00164944 0.0010726 -0.00528525 0 0 0 1 0 0 0 0 0 0 0 0 0 0 0 0 190 0.002 
2365 5 0.0153342 0.08134 -0.0322564 0 0 0 -0.0143179 0.0577607 -0.131936 0 -0.000164368 0 0 0 0 0 0 0 0 0 0 0 0 0 0 0 0 0 0 0.002 
965 2 0.00682909 0.0825271 -0.0329625 0 0 0 -0.0148121 -0.111179 0.0258176 0 -0.000164368 0 0 0 0 0 0 0 0 0 0 0 0 0 0 0 0 0 153 0.002 
899 1 0.0102207 0.0856255 -0.0326098 0 0 0 0.176998 -0.162144 -0.0448828 -0.0162072 -0.00967349 -0.00180236 1 0 0 0 0 0 0 0 0 0 0 0 0 0 0 0 174 0.002 
1087 9 0.0169888 0.0851673 -0.0329903 0 0 0 0.116281 0.189068 0.0035505 0 -0.000164368 0 0 0 0 0 0 0 0 0 0 0 0 0 0 0 0 0 154 0.002 
1681 3 0.00313605 0.0885691 -0.0328648 0 0 0 0.00671886 0.00318965 0.0523145 0 -0.000164368 0 0 0 0 0 0 0 0 0 0 0 0 0 0 0 0 0 98 0.002 
2091 4 0.0137411 0.08745 -0.0322756 0 0 0 -0.0048393 0.0875757 0.00229475 0.0162072 0.00934475 0.00180236 1 0 0 0 0 0 0 0 0 0 0 0 0 0 0 0 54 0.002 
814 6 0.00706285 0.0906405 -0.0329354 0 0 0 0.0286142 -0.0483186 0.0296418 0 -0.000164368 0 0 0 0 0 0 0 0 0 0 0 0 0 0 0 0 0 201 0.002 
1471 6 0.01637 0.0904799 -0.0323199 0 0 0 0.0757323 -0.109333 0.0401682 2.24856e-05 -0.00104426 0.000107417 0 0 0 0 0 1 0 0 0 0 0 0 0 0 0 0 139 0.002 
2112 2 0.00317442 0.0925745 -0.0329672 0 0 0 0.0363959 0.019685 0.0114779 0 -0.000164368 0 0 0 0 0 0 0 0 0 0 0 0 0 0 0 0 0 62 0.002 
1082 4 0.0105268 0.0927377 -0.0329052 0 0 0 -0.0273616 -0.044832 0.0374958 0.000194463 -0.00293463 -0.00057362 0 0 0 1 0 0 0 0 0 0 0 0 0 0 0 0 154 0.002 
704 3 0.00698541 0.0946745 -0.0329571 0 0 0 -0.0624218 -0.0220372 0.00876691 0 -0.000164368 0 0 0 0 0 0 0 0 0 0 0 0 0 0 0 0 0 159 0.002 
2115 3 0.0144958 0.0939693 -0.0328695 0 0 0 0.0933589 -0.129403 0.0166354 -2.24856e-05 0.000715526 -0.000107417 0 0 0 0 0 1 0 0 0 0 0 0 0 0 0 0 70 0.002 
1499 5 0.0185513 0.0940419 -0.0328589 0 0 0 0.037264 -0.137387 0.0114344 0 -0.000164368 0 0 0 0 0 0 0 0 0 0 0 0 0 0 0 0 0 68 0.002 
2318 7 0.0030302 0.0966875 -0.0329886 0 0 0 0.0130359 0.0638689 0.00970362 0 -0.000164368 0 0 0 0 0 0 0 0 0 0 0 0 0 0 0 0 0 8 0.002 
796 1 0.0111806 0.0966694 -0.0327186 0 0 0 0.078857 0.00392538 0.0252705 -0.000194463 0.0026059 0.00057362 0 0 0 1 0 0 0 0 0 0 0 0 0 0 0 0 174 0.002 
1335 15 0.0164167 0.0974982 -0.0327523 0 0 0 0.0646581 -0.0903734 0.00267828 -2.94494e-06 -0.000153229 2.50747e-06 0 0 0 0 0 0 0 0 0 0 0 0 0 0 1 0 170 0.002 
1901 1 0.0064315 0.09882 -0.0329958 0 0 0 0.0359025 -0.0100559 0.0142449 0 -0.000164368 0 0 0 0 0 0 0 0 0 0 0 0 0 0 0 0 0 76 0.002 
520 1 0.00997033 0.100747 -0.033001 0 0 0 0.0709076 -0.0409454 -0.0046767 -5.94939e-05 0.000217164 0.000772286 0 0 0 0 0 0 0 0 0 0 0 0 0 0 0 0 176 0.002 
1680 3 0.013968 0.100659 -0.0328475 0 0 0 0.0850159 -0.0694026 -0.00015968 2.94494e-06 -0.000175507 -2.50747e-06 0 0 0 0 0 0 0 0 0 0 0 0 0 0 1 0 129 0.002 
1445 3 0.00302236 0.101065 -0.0326284 0 0 0 0.000718359 -0.037881 0.0255305 0 -0.000164368 0 0 0 0 0 0 0 0 0 0 0 0 0 0 0 0 0 115 0.002 
1594 4 0.0182694 0.101072 -0.0330002 0 0 0 -0.0346448 -0.00461636 0.00664039 0.000289084 -0.000188356 -0.000699135 0 0 0 1 0 0 0 0 0 0 0 0 0 0 0 0 72 0.002 
1958 12 0.00659846 0.103566 -0.0329882 0 0 0 0.0104019 -0.0845285 0.00395662 0 -0.000164368 0 0 0 0 0 0 0 0 0 0 0 0 0 0 0 0 0 86 0.002 
241 1 0.0106372 0.104673 -0.0326039 0 0 0 -0.0112084 -0.0464901 0.0290652 0 -0.000164368 0 0 0 0 0 0 0 0 0 0 0 0 0 0 0 0 0 214 0.002 
58 4 0.0157775 0.104221 -0.0326503 0 0 0 -0.0646181 0.00751203 0.0335465 -2.08586e-05 -0.000185363 6.42217e-06 0 0 0 1 0 0 0 0 0 0 0 0 0 0 0 0 166 0.002 
529 6 0.0030322 0.10587 -0.0328615 0 0 0 0.00332028 -0.0629199 -0.00149647 0 -0.000164368 0 0 0 0 0 0 0 0 0 0 0 0 0 0 0 0 0 155 0.002 
214 4 0.006956 0.107687 -0.0329945 0 0 0 0.0512374 -0.0693475 0.00117224 0 -0.000164368 0 0 0 0 0 0 0 0 0 0 0 0 0 0 0 0 0 187 0.002 
1216 2 0.0131049 0.107823 -0.0324796 0 0 0 -0.0978866 0.0307913 0.0540715 0 -0.000164368 0 0 0 0 0 0 0 0 0 0 0 0 0 0 0 0 0 79 0.002 
935 1 0.0170703 0.10799 -0.0330002 0 0 0 -0.101038 0.0183353 0.00282011 7.84298e-05 -0.00012711 1.84411e-05 1 0 0 1 0 0 0 0 0 0 0 0 0 0 0 0 144 0.002 
2068 13 0.00379555 0.0785241 -0.0308154 0 0 0 0.0832974 -0.0177668 0.343984 0 -0.000164368 0 0 0 0 0 0 0 0 0 0 0 0 0 0 0 0 0 50 0.002 
1246 2 0.00800387 0.0792756 -0.0306631 0 0 0 0.218173 0.160243 0.459644 0 -0.000164368 0 0 0 0 0 0 0 0 0 0 0 0 0 0 0 0 0 108 0.002 
466 4 0.00319038 0.08292 -0.030761 0 0 0 0.0542431 0.235598 0.00536337 0 -0.000164368 0 0 0 0 0 0 0 0 0 0 0 0 0 0 0 0 0 143 0.002 
1533 7 0.0104229 0.0897752 -0.0299211 0 0 0 0.134479 -0.0921835 -0.0649643 -0.00491703 -0.00402974 -0.00290792 0 0 0 0 0 0 1 0 0 0 0 0 0 0 0 0 96 0.002 
1275 6 0.0136546 0.0920517 -0.0293308 0 0 0 -0.0716263 -0.126172 -0.00153175 0.00491703 0.003701 0.00290792 0 0 0 0 0 0 1 0 0 0 0 0 0 0 0 0 168 0.002 
2108 9 0.0101616 0.0948768 -0.0292721 0 0 0 0.0275168 -0.0554979 0.0435938 0 -0.000164368 0 0 0 0 0 0 0 0 0 0 0 0 0 0 0 0 0 67 0.002 
2310 7 0.0138772 0.0964981 -0.0293042 0 0 0 0.0444587 -0.118363 -0.0103455 0 -0.000164368 0 0 0 0 0 0 0 0 0 0 0 0 0 0 0 0 0 6 0.002 
1645 1 0.0184487 0.0977155 -0.0292863 0 0 0 -0.0068038 -0.104133 0.0647352 0 -0.000164368 0 0 0 0 0 0 0 0 0 0 0 0 0 0 0 0 0 112 0.002 
708 2 0.01033 0.0989044 -0.0294639 0 0 0 0.0305964 -0.0677041 -0.00467197 0 -0.000164368 0 0 0 0 0 0 0 0 0 0 0 0 0 0 0 0 0 170 0.002 
121 8 0.00595691 0.100982 -0.029568 0 0 0 0.0133483 -0.0609781 0.0273049 4.40467e-07 -0.000165365 -3.40233e-07 0 0 0 0 0 0 0 1 0 0 0 0 0 0 0 0 181 0.002 
476 2 0.0165051 0.101252 -0.0294175 0 0 0 0.00745148 -0.0680903 0.0341093 -0.000186248 -0.000133264 0.00049297 0 0 0 1 0 0 0 0 0 0 0 0 0 0 0 0 199 0.002 
197 4 0.0030103 0.103666 -0.0292447 0 0 0 -0.00908775 -0.0684365 -0.00675556 -0.000234745 -0.000371603 -0.000118467 0 0 0 1 0 0 0 1 0 0 0 0 0 0 0 0 153 0.002 
1308 1 0.00650865 0.105592 -0.0294306 0 0 0 0.000547165 -0.0726647 -0.0134056 2.20206e-05 0.000384315 0.000243728 2 0 0 1 0 0 0 0 0 0 0 0 0 0 0 0 130 0.002 
210 9 0.00999442 0.107604 -0.0299298 0 0 0 -0.000749797 -0.0490048 0.0552605 0 -0.000164368 0 0 0 0 0 0 0 0 0 0 0 0 0 0 0 0 0 111 0.002 
1495 4 0.0155552 0.107826 -0.0292476 0 0 0 -0.0335712 -0.0371295 0.027768 -0.000156398 -0.00016405 8.42057e-06 0 0 0 1 0 0 0 0 0 0 0 0 0 0 0 0 112 0.002 
2018 8 0.00486796 0.0768837 -0.0269796 0 0 0 0.177993 0.137555 0.434339 0 -0.000164368 0 0 0 0 0 0 0 0 0 0 0 0 0 0 0 0 0 65 0.002 
581 5 0.0110148 0.0815588 -0.0279226 0 0 0 0.193688 -0.212447 0.232713 0 -0.000164368 0 0 0 0 0 0 0 0 0 0 0 0 0 0 0 0 0 180 0.002 
1129 1 0.0144693 0.0834928 -0.0287178 0 0 0 0.150257 0.0407365 0.0559215 0 -0.000164368 0 0 0 0 0 0 0 0 0 0 0 0 0 0 0 0 0 142 0.002 
823 9 0.0032217 0.086592 -0.0291024 0 0 0 0.0362203 0.156806 0.197945 0 -0.000164368 0 0 0 0 0 0 0 0 0 0 0 0 0 0 0 0 0 121 0.002 
486 2 0.0110576 0.0857067 -0.0284023 0 0 0 -0.00411479 0.0226661 -0.0218396 0 -0.000164368 0 0 0 0 0 0 0 0 0 0 0 0 0 0 0 0 0 146 0.002 
1863 1 0.00659404 0.0889855 -0.028903 0 0 0 0.141914 0.0893917 0.181934 0 -0.000164368 0 0 0 0 0 0 0 0 0 0 0 0 0 0 0 0 0 80 0.002 
1904 6 0.0153818 0.0878911 -0.0286129 0 0 0 -0.0606669 -0.181032 0.0304871 0 -0.000164368 0 0 0 0 0 0 0 0 0 0 0 0 0 0 0 0 0 47 0.002 
20 3 0.00300156 0.0911118 -0.0289472 0 0 0 0.0040912 -0.0122502 0.00270887 0 -0.000164368 0 0 0 0 0 0 0 0 0 0 0 0 0 0 0 0 0 64 0.002 
85 8 0.00654298 0.0930195 -0.0289013 0 0 0 -0.087309 0.108204 -0.400037 0.00120926 -0.0207316 0.0116895 0 0 0 0 0 0 0 1 0 0 0 0 0 0 0 0 213 0.002 
1226 1 0.00301901 0.0951005 -0.0281102 0 0 0 0.00716563 0.00351177 0.0525698 0 -0.000164368 0 0 0 0 0 0 0 0 0 0 0 0 0 0 0 0 0 141 0.002 
2144 4 0.0170759 0.0939616 -0.0285109 0 0 0 -0.185895 0.174241 0.0916187 0 -0.000164368 0 0 0 0 0 0 0 0 0 0 0 0 0 0 0 0 0 48 0.002 
1352 5 0.00642886 0.0969903 -0.0291133 0 0 0 0.0243341 0.0662968 -0.0739748 -0.00120926 0.0204029 -0.0116895 0 0 0 0 0 0 0 1 0 0 0 0 0 0 0 0 111 0.002 
29 5 0.00303599 0.0989978 -0.0271684 0 0 0 0.00711978 0.00963442 0.0336644 0 -0.000164368 0 0 0 0 0 0 0 0 0 0 0 0 0 0 0 0 0 179 0.002 
2308 8 0.00944724 0.102894 -0.0291643 0 0 0 0.0170203 -0.0501179 0.0299242 0.000213272 -0.000511193 -0.000129583 1 0 0 0 0 0 0 0 0 0 0 0 0 0 0 0 14 0.002 
1662 8 0.0130028 0.101084 -0.0274064 0 0 0 0.00400308 -0.0429078 0.0316642 0 -0.000164368 0 0 0 0 0 0 0 0 0 0 0 0 0 0 0 0 0 84 0.002 
826 1 0.0128757 0.104901 -0.0286943 0 0 0 0.0295878 -0.0622883 0.0404189 0 -0.000164368 0 0 0 0 0 0 0 0 0 0 0 0 0 0 0 0 0 143 0.002 
1417 4 0.0030899 0.107665 -0.0291521 0 0 0 0.00611727 -0.0581185 0.00891612 0 -0.000164368 0 0 0 0 0 0 0 0 0 0 0 0 0 0 0 0 0 82 0.002 
2075 1 0.00541408 0.0803352 -0.0248557 0 0 0 -0.886959 -0.279514 -0.310808 0 -0.000164368 0 0 0 0 0 0 0 0 0 0 0 0 0 0 0 0 0 43 0.002 
1403 11 0.0169827 0.0841173 -0.0253376 0 0 0 0.357498 0.123774 -0.107736 0 -0.000164368 0 0 0 0 0 0 0 0 0 0 0 0 0 0 0 0 0 171 0.002 
2185 8 0.00299847 0.0886587 -0.0256488 0 0 0 0.0557037 0.00282188 0.0011254 -0.00259595 -0.000235327 -6.46927e-05 0 0 0 0 0 0 0 0 0 0 0 0 0 0 0 0 32 0.002 
1963 2 0.018525 0.0884188 -0.0261851 0 0 0 -0.296316 -0.0286419 -0.120112 -0.00527574 0.00150459 -0.00160646 0 0 0 0 0 0 0 0 0 0 0 0 0 0 0 0 76 0.002 
1947 3 0.0121684 0.0898721 -0.0260436 0 0 0 -0.126085 -0.184441 -0.0804244 0 -0.000164368 0 0 0 0 0 0 0 0 0 0 0 0 0 0 0 0 0 62 0.002 
492 2 0.00721853 0.092325 -0.0249851 0 0 0 0.0637727 0.210933 -0.063042 -0.0157414 -0.00698279 -0.0042634 0 1 0 0 0 0 0 0 0 0 0 0 0 0 0 0 163 0.002 
333 2 0.00920318 0.0957394 -0.0252954 0 0 0 0.14865 0.493041 -0.0600515 0.0171986 0.0187895 0.00073178 0 0 0 0 0 0 0 0 0 0 0 0 0 0 0 0 137 0.002 
730 9 0.0135254 0.0945155 -0.025637 0 0 0 0.0872132 -0.0779188 0.0529101 0 -0.000164368 0 0 0 0 0 0 0 0 0 0 0 0 0 0 0 0 0 203 0.002 
542 6 0.00680337 0.0990024 -0.0254895 0 0 0 0.171286 0.464116 -0.0619677 0.000791626 -0.0167418 -0.00238599 0 0 0 0 0 1 0 0 0 0 0 0 0 0 0 0 138 0.002 
2305 8 0.0158769 0.0984779 -0.026313 0 0 0 0.0124141 -0.0620899 0.0546174 0 -0.000164368 0 0 0 0 0 0 0 0 0 0 0 0 0 0 0 0 0 7 0.002 
983 12 0.00309693 0.102359 -0.0249925 0 0 0 -0.00963267 -0.00464502 0.0507927 0 -0.000164368 0 0 0 0 0 0 0 0 0 0 0 0 0 0 0 0 0 165 0.002 
602 8 0.00685934 0.103513 -0.0259098 0 0 0 0.0157769 -0.0611867 0.00320816 0 -0.000164368 0 0 0 0 0 0 0 0 0 0 0 0 0 0 0 0 0 213 0.002 
2296 9 0.0162596 0.104194 -0.0266813 0 0 0 0.0162455 -0.102265 0.0537089 0 -0.000164368 0 0 0 0 0 0 0 0 0 0 0 0 0 0 0 0 0 13 0.002 
1913 2 0.00301326 0.106357 -0.0253704 0 0 0 0.00251853 0.00271454 0.0325904 0 -0.000164368 0 0 0 0 0 0 0 0 0 0 0 0 0 0 0 0 0 62 0.002 
1654 7 0.00678327 0.107564 -0.0259632 0 0 0 0.0267805 -0.0627688 -0.0015965 -9.8801e-07 -0.000157996 4.6617e-06 1 0 0 0 0 0 0 0 0 0 0 0 0 0 0 0 96 0.002 
1418 5 0.0107818 0.1073 -0.026007 0 0 0 0.0294761 -0.108518 0.049282 0 -0.000164368 0 0 0 0 0 0 0 0 0 0 0 0 0 0 0 0 0 113 0.002 
1956 4 0.0146707 0.107658 -0.0250176 0 0 0 0.0176708 -0.0519703 0.042686 0 -0.000164368 0 0 0 0 0 0 0 0 0 0 0 0 0 0 0 0 0 57 0.002 
1850 6 0.0113127 0.0773213 -0.0241766 0 0 0 0.95906 1.42865 1.77645 0 -0.000164368 0 0 0 0 0 0 0 0 0 0 0 0 0 0 0 0 0 85 0.002 
1868 10 0.00411793 0.0849389 -0.0245792 0 0 0 0.0671351 0.546755 0.110627 -0.0562538 0.0195835 -0.0545302 0 0 0 0 0 0 0 0 0 1 0 0 0 0 0 0 58 0.002 
906 3 0.00736637 0.0851099 -0.0223486 0 0 0 -0.397099 0.654062 0.6974 0.0562538 -0.0199122 0.0545302 0 0 0 0 0 0 0 0 0 1 0 0 0 0 0 0 154 0.002 
598 6 0.00842072 0.0889545 -0.0232342 0 0 0 0.961498 0.75154 0.36444 -0.00145715 -0.0122998 0.00353162 0 1 0 0 0 0 0 0 0 0 0 0 0 0 0 0 186 0.002 
223 8 0.014817 0.0897965 -0.0229421 0 0 0 -0.0822609 -0.226512 -0.0888574 0 -0.000164368 0 0 0 0 0 0 0 0 0 0 0 0 0 0 0 0 0 205 0.002 
2100 4 0.00323958 0.0919643 -0.0233844 0 0 0 -0.0248039 0.00199807 0.0761938 0 -0.000164368 0 0 0 0 0 0 0 0 0 0 0 0 0 0 0 0 0 54 0.002 
1023 1 0.0106986 0.0926346 -0.0229596 0 0 0 0.0584046 -0.0782278 0.0804497 0 -0.000164368 0 0 0 0 0 0 0 0 0 0 0 0 0 0 0 0 0 43 0.002 
2123 6 0.017242 0.0928896 -0.0245459 0 0 0 -0.486206 -0.236194 -0.22943 -0.0233666 -0.0342493 -0.0443609 0 0 0 0 0 1 0 0 0 0 0 0 0 0 0 0 64 0.002 
1910 2 0.00492208 0.0955967 -0.0245961 0 0 0 -0.319066 0.239923 -0.0468658 0.0234057 -0.0217425 -0.0228024 0 0 0 0 0 1 0 0 0 0 0 0 0 0 0 0 69 0.002 
925 7 0.0121246 0.0983296 -0.0240407 0 0 0 0.0264096 -0.0543248 0.0829718 0.000266399 -9.29811e-05 -0.000231094 0 0 0 0 0 0 1 0 0 0 0 0 0 0 0 0 171 0.002 
647 2 0.00339932 0.0987743 -0.0227945 0 0 0 -0.112885 0.164397 0.163162 -0.0241974 0.0379912 0.0251884 0 0 0 0 0 0 0 0 0 0 0 0 0 0 0 0 169 0.002 
1108 3 0.0158607 0.0984847 -0.0223109 0 0 0 -0.873451 0.595584 -0.390394 0.0419897 -0.106863 -0.0107768 0 0 3 0 0 0 0 0 0 0 0 0 0 0 0 0 156 0.002 
1090 6 0.00986589 0.101824 -0.0238077 0 0 0 -0.00546268 -0.0441811 0.0604808 0 -0.000164368 0 0 0 0 0 0 0 0 0 0 0 0 0 0 0 0 0 133 0.002 
190 5 0.0141524 0.101948 -0.0232095 0 0 0 -0.0714441 0.109592 0.131774 -0.0361886 0.0853563 0.0101481 0 0 1 0 0 0 0 0 0 0 0 0 0 0 0 0 169 0.002 
1388 4 0.0183575 0.101015 -0.0241173 0 0 0 0.0318615 0.02469 -0.00650895 0.00153955 0.0057448 -0.00389687 0 0 1 0 0 0 0 0 0 0 0 0 0 0 0 0 170 0.002 
1829 2 0.00597292 0.0769191 -0.0208885 0 0 0 -0.158428 0.085669 1.2709 0 -0.000164368 0 0 0 0 0 0 0 0 0 0 0 0 0 0 0 0 0 73 0.002 
1637 7 0.0067345 0.0813862 -0.0209638 0 0 0 -0.777723 0.553735 0.107216 0 -0.000164368 0 0 0 0 0 0 0 0 0 0 0 0 0 0 0 0 0 116 0.002 
372 3 0.00339432 0.0842033 -0.0205523 0 0 0 0.0719468 0.412777 0.417587 0 -0.000164368 0 0 0 0 0 0 0 0 0 0 0 0 0 0 0 0 0 186 0.002 
1551 2 0.0118363 0.0835254 -0.0218323 0 0 0 1.05342 2.66944 -0.0840263 0 -0.000164368 0 0 0 0 0 0 0 0 0 0 0 0 0 0 0 0 0 82 0.002 
654 9 0.00318642 0.0881368 -0.0215343 0 0 0 0.018011 0.140835 0.172631 0 -0.000164368 0 0 0 0 0 0 0 0 0 0 0 0 0 0 0 0 0 201 0.002 
945 4 0.00789379 0.0936848 -0.0201942 0 0 0 0.10375 -0.111583 0.13544 0 -0.000164368 0 0 0 0 0 0 0 0 0 0 0 0 0 0 0 0 0 59 0.002 
531 1 0.0029999 0.0951312 -0.0209032 0 0 0 0.0113343 0.0611172 0.135309 -0.000345544 -0.000286334 -0.00012237 0 0 0 0 0 0 0 0 0 0 0 0 0 0 0 0 160 0.002 
675 10 0.0139884 0.094551 -0.0204016 0 0 0 0.0320683 0.0320257 0.0155274 0 -0.000164368 0 0 0 0 0 0 0 0 0 0 0 0 0 0 0 0 0 232 0.002 
1967 3 0.0183711 0.0954495 -0.0217534 0 0 0 -0.552684 0.264003 -0.736133 0.0214276 0.0343176 0.0434046 0 0 1 0 0 1 0 0 0 0 0 0 0 0 0 0 68 0.002 
251 5 0.00931192 0.0973032 -0.0213913 0 0 0 0.058805 -0.0964685 0.108228 -0.000266399 -0.000235755 0.000231094 0 0 0 0 0 0 1 0 0 0 0 0 0 0 0 0 218 0.002 
2093 7 0.00673397 0.100385 -0.0210006 0 0 0 0.0277988 -0.137546 0.135241 0 -0.000164368 0 0 0 0 0 0 0 0 0 0 0 0 0 0 0 0 0 72 0.002 
2119 1 0.00311063 0.103372 -0.0211198 0 0 0 0.0223818 -0.0825977 0.0789977 0 -0.000164368 0 0 0 0 0 0 0 0 0 0 0 0 0 0 0 0 0 59 0.002 
1943 1 0.00839653 0.104027 -0.0206635 0 0 0 -0.0593641 -0.0874154 0.082619 0 -0.000164368 0 0 0 0 0 0 0 0 0 0 0 0 0 0 0 0 0 74 0.002 
1056 1 0.0121474 0.105424 -0.0211976 0 0 0 -0.069619 -0.0177394 0.0718895 0 -0.000164368 0 0 0 0 0 0 0 0 0 0 0 0 0 0 0 0 0 131 0.002 
1987 8 0.0178992 0.103975 -0.0214094 0 0 0 -0.048278 -0.0855993 0.0622216 0 -0.000164368 0 0 0 0 0 0 0 0 0 0 0 0 0 0 0 0 0 56 0.002 
1665 2 0.00303409 0.107356 -0.0214929 0 0 0 0.00903535 -0.0856292 0.0386702 0 -0.000164368 0 0 0 0 0 0 0 0 0 0 0 0 0 0 0 0 0 101 0.002 
168 2 0.00703552 0.107597 -0.0219292 0 0 0 0.01488 -0.0790639 -0.00804201 0 -0.000164368 0 0 0 0 0 0 0 0 0 0 0 0 0 0 0 0 0 129 0.002 