ITEM: TIMESTEP
18750000
ITEM: NUMBER OF ATOMS
2268
ITEM: BOX BOUNDS ff ff ff
-0.01 0.45
-0.15 0.15
-0.08 0.1
ITEM: ATOMS id type x y z ix iy iz vx vy vz fx fy fz c_cc_1 c_cc_2 c_cc_3 c_cc_4 c_cc_5 c_cc_6 c_cc_7 c_cc_8 c_cc_9 c_cc_10 c_cc_11 c_cc_12 c_cc_13 c_cc_14 c_cc_15 c_cc_16 f_fppacc radius 
542 6 0.00941586 -0.0437663 0.009003 0 0 0 1.09429 23.93 25.8941 0 -0.000164368 0 0 0 0 0 0 0 0 0 0 0 0 0 0 0 0 0 135 0.002 
764 3 0.00509262 -0.0541327 0.00647439 0 0 0 -4.00523 8.05738 17.0794 0 -0.000164368 0 0 0 0 0 0 0 0 0 0 0 0 0 0 0 0 0 151 0.002 
944 5 0.00854676 -0.0516435 0.0257017 0 0 0 -4.10523 4.97692 11.0786 0 -0.000164368 0 0 0 0 0 0 0 0 0 0 0 0 0 0 0 0 0 176 0.002 
351 8 0.0131467 -0.0196987 -0.0541726 0 0 0 0.591508 -3.28142 1.64486 0 -0.000164368 0 0 0 0 0 0 0 0 0 0 0 0 0 0 0 0 0 112 0.002 
1980 13 0.0124586 -0.022654 -0.0363557 0 0 0 -1.30492 0.526303 4.78379 0 -0.000164368 0 0 0 0 0 0 0 0 0 0 0 0 0 0 0 0 0 34 0.002 
770 5 0.0122602 -0.00251526 0.0429044 0 0 0 0.569171 -1.76609 -0.726175 0 -0.000164368 0 0 0 0 0 0 0 0 0 0 0 0 0 0 0 0 0 103 0.002 
27 9 0.00482738 -0.0174185 0.0551322 0 0 0 0.437628 9.12736 2.09843 -0.00639904 0.031139 -0.0986608 0 0 0 0 0 0 0 0 0 0 0 0 0 0 0 0 192 0.002 
1873 4 0.00311954 -0.00256248 0.0575063 0 0 0 1.03603 9.49387 -0.00724407 0 -0.000164368 0 0 0 0 0 0 0 0 0 0 0 0 0 0 0 0 0 37 0.002 
904 8 0.00391027 -0.0367955 0.0446444 0 0 0 0.129169 8.49826 7.40573 0.00175925 0.198289 -0.27323 0 0 0 0 0 0 0 0 0 0 0 0 0 0 0 0 190 0.002 
59 1 0.0163146 0.0358504 -0.0333643 0 0 0 0.853066 -0.859481 -0.379055 0 -0.000164368 0 0 0 0 0 0 0 0 0 0 0 0 0 0 0 0 0 149 0.002 
1551 2 0.00394459 0.0350168 -0.0300627 0 0 0 0.16621 0.781123 2.39358 0 -0.000164368 0 0 0 0 0 0 0 0 0 0 0 0 0 0 0 0 0 81 0.002 
288 6 0.00747889 0.0264068 -0.0189687 0 0 0 0.74541 -6.31873 0.0871814 0.0198385 0.331413 -0.6339 0 0 0 0 0 0 0 0 0 0 0 0 0 0 0 0 184 0.002 
1652 6 0.0134904 0.0276798 0.0231649 0 0 0 2.34554 -4.72436 -2.18689 0 -0.000164368 0 0 0 0 0 0 0 0 0 0 0 0 0 0 0 0 0 98 0.002 
2332 6 0.0160053 0.0156725 0.0357999 0 0 0 1.50633 -1.31882 -1.93744 0 -0.000164368 0 0 0 0 0 0 0 0 0 0 0 0 0 0 0 0 0 0 0.002 
372 3 0.01385 0.0112121 0.0402556 0 0 0 0.335225 -1.24379 1.17777 0 -0.000164368 0 0 0 0 0 0 0 0 0 0 0 0 0 0 0 0 0 186 0.002 
143 8 0.00292925 0.0356169 0.0447169 0 0 0 0.220238 5.76219 -6.04322 -0.0104187 0.18622 -0.0132137 0 0 0 0 0 0 0 1 0 0 0 0 0 0 0 0 164 0.002 
1183 1 0.00601832 0.03423 0.0466822 0 0 0 -0.817214 3.59423 -12.0128 0.2643 0.430891 0.373377 0 0 0 0 0 0 0 1 0 0 0 0 0 0 0 0 133 0.002 
2310 7 0.0122179 0.0331618 0.0469286 0 0 0 3.35805 8.66111 -5.48528 0 -0.000164368 0 0 0 0 0 0 0 0 0 0 0 0 0 0 0 0 0 0 0.002 
945 4 0.00789575 0.031495 0.0443864 0 0 0 14.4832 13.3588 -26.9043 0 -0.000164368 0 0 0 0 0 0 0 0 0 0 0 0 0 0 0 0 0 58 0.002 
665 4 0.0179952 0.0512991 -0.035504 0 0 0 -2.89058e-09 -1.81038e-09 -2.63738e-11 -8.55888e-09 -8.68643e-09 4.47713e-11 0 0 0 2 0 0 0 0 0 0 0 0 0 0 0 0 274 0.002 
393 1 0.013745 0.0541008 -0.0355 0 0 0 1.09541e-182 -1.21775e-19 -1.11877e-12 -1.58414e-182 0 0 0 0 0 0 0 0 0 0 0 0 0 0 0 0 0 0 1 0.002 
1145 2 0.0126128 0.0650917 -0.0355 0 0 0 8.73933e-22 2.43371e-19 5.06136e-12 6.01688e-23 1.35525e-20 0 0 0 0 0 0 0 0 0 0 0 0 0 0 0 0 0 4 0.002 
465 6 0.016957 0.0642918 -0.0355038 0 0 0 1.24989e-09 -4.60531e-09 1.95283e-12 5.5853e-10 -2.05792e-09 3.55271e-15 0 0 0 0 0 1 0 0 0 0 0 0 0 0 0 0 22 0.002 
2073 2 0.0118584 0.0474687 -0.0325129 0 0 0 1.65568 -1.69802 0.120931 0 -0.000164368 0 0 0 0 0 0 0 0 0 0 0 0 0 0 0 0 0 38 0.002 
1698 1 0.0137316 0.0583476 -0.0327005 0 0 0 0.975002 -0.27907 -0.162019 0 -0.000164368 0 0 0 0 0 0 0 0 0 0 0 0 0 0 0 0 0 97 0.002 
418 1 0.00686623 0.0648525 -0.0322669 0 0 0 -0.567034 -2.07705 0.210098 0 -0.000164368 0 0 0 0 0 0 0 0 0 0 0 0 0 0 0 0 0 85 0.002 
1091 12 0.00331611 0.0695637 -0.032869 0 0 0 0.632506 -0.560387 0.411795 0 -0.000164368 0 0 0 0 0 0 0 0 0 0 0 0 0 0 0 0 0 127 0.002 
2336 1 0.00422173 0.0409217 -0.0295308 0 0 0 0.156879 0.600348 -0.0867474 0 -0.000164368 0 0 0 0 0 0 0 0 0 0 0 0 0 0 0 0 0 0 0.002 
2141 8 0.0177354 0.0561574 -0.0291784 0 0 0 0.840397 -1.27419 0.288834 0 -0.000164368 0 0 0 0 0 0 0 0 0 0 0 0 0 0 0 0 0 40 0.002 
1743 6 0.00662512 0.0713936 -0.0312225 0 0 0 -0.626157 -0.791025 -0.278675 0 -0.000164368 0 0 0 0 0 0 0 0 0 0 0 0 0 0 0 0 0 83 0.002 
1013 7 0.00324034 0.0739739 -0.0310978 0 0 0 0.0942876 -0.402339 0.447228 0 -0.000164368 0 0 0 0 0 0 0 0 0 0 0 0 0 0 0 0 0 220 0.002 
2337 2 0.00686862 0.0643747 -0.00434892 0 0 0 6.27473 5.30818 -26.1409 0 -0.000164368 0 0 0 0 0 0 0 0 0 0 0 0 0 0 0 0 0 0 0.002 
1625 3 0.0145631 0.0729797 -0.0292528 0 0 0 -2.14129 -2.32888 -0.309288 0 -0.000164368 0 0 0 0 0 0 0 0 0 0 0 0 0 0 0 0 0 98 0.002 
1578 1 0.00693495 0.0427395 -0.0219977 0 0 0 0.697259 -2.99449 1.44545 0 -0.000164368 0 0 0 0 0 0 0 0 0 0 0 0 0 0 0 0 0 93 0.002 
2343 4 0.0186809 0.0617046 -0.0214863 0 0 0 1.1987 -4.96764 1.71533 0 -0.000164368 0 0 0 0 0 0 0 0 0 0 0 0 0 0 0 0 0 0 0.002 
585 8 0.0173319 0.044592 -0.0199148 0 0 0 -0.01026 -4.32473 2.1037 0 -0.000164368 0 0 0 0 0 0 0 0 0 0 0 0 0 0 0 0 0 54 0.002 
191 2 0.00510431 0.0447272 -0.0189157 0 0 0 -1.03696 -5.22142 2.34343 0 -0.000164368 0 0 0 0 0 0 0 0 0 0 0 0 0 0 0 0 0 190 0.002 
112 3 0.00792055 0.0486563 -0.0196947 0 0 0 -0.868474 -2.95317 0.326977 0 -0.000164368 0 0 0 0 0 0 0 0 0 0 0 0 0 0 0 0 0 94 0.002 
2338 1 0.00813832 0.0560057 -0.0122183 0 0 0 -2.24046 -3.34085 4.26585 0 -0.000164368 0 0 0 0 0 0 0 0 0 0 0 0 0 0 0 0 0 0 0.002 
2078 3 0.017875 0.0677681 -0.0141943 0 0 0 0.666149 -0.626794 1.91838 0 -0.000164368 0 0 0 0 0 0 0 0 0 0 0 0 0 0 0 0 0 41 0.002 
1896 2 0.0180465 0.0464002 -0.00965416 0 0 0 -0.568048 -8.03106 4.5979 0 -0.000164368 0 0 0 0 0 0 0 0 0 0 0 0 0 0 0 0 0 97 0.002 
2344 1 0.0130578 0.0582447 -0.00762228 0 0 0 0.590343 -2.44566 3.31965 0 -0.000164368 0 0 0 0 0 0 0 0 0 0 0 0 0 0 0 0 0 0 0.002 
1719 3 0.0169835 0.0574558 0.00578037 0 0 0 -0.599067 -0.34116 -2.41871 0 -0.000164368 0 0 0 0 0 0 0 0 0 0 0 0 0 0 0 0 0 89 0.002 
2271 5 0.0087629 0.0522365 -0.00135196 0 0 0 -0.936912 -1.46041 9.22653 0 -0.000164368 0 0 0 0 0 0 0 0 0 0 0 0 0 0 0 0 0 0 0.002 
1910 2 0.0137004 0.0466405 -0.00478037 0 0 0 -0.363924 -1.72562 2.30353 0 -0.000164368 0 0 0 0 0 0 0 0 0 0 0 0 0 0 0 0 0 66 0.002 
2162 7 0.0034326 0.0495101 -0.000200426 0 0 0 -11.4987 -5.75439 6.91978 0 -0.000164368 0 0 0 0 0 0 0 0 0 0 0 0 0 0 0 0 0 28 0.002 
1383 2 0.016763 0.0721219 0.0112232 0 0 0 0.141762 -0.201428 -0.358912 0 -0.000164368 0 0 0 0 0 0 0 0 0 0 0 0 0 0 0 0 0 147 0.002 
285 1 0.00574143 0.0686737 0.0140178 0 0 0 -0.284783 0.433031 -0.627468 0.0321698 0.00757291 -0.0123555 1 0 0 0 0 0 0 0 0 0 0 0 0 0 0 0 175 0.002 
512 2 0.00929325 0.0731388 0.0138819 0 0 0 -0.0626637 -0.322714 -0.42378 0 -0.000164368 0 0 0 0 0 0 0 0 0 0 0 0 0 0 0 0 0 194 0.002 
1741 9 0.00771358 0.0648256 0.0123395 0 0 0 -2.1064 1.36918 -5.51905 0 -0.000164368 0 0 0 0 0 0 0 0 0 0 0 0 0 0 0 0 0 110 0.002 
2027 2 0.0145232 0.0680893 0.0122756 0 0 0 0.838031 1.54259 -6.25761 0 -0.000164368 0 0 0 0 0 0 0 0 0 0 0 0 0 0 0 0 0 57 0.002 
1778 10 0.0161762 0.0722628 0.0159208 0 0 0 0.335497 0.495404 -0.831607 0 -0.000164368 0 0 0 0 0 0 0 0 0 0 0 0 0 0 0 0 0 106 0.002 
1070 2 0.0032252 0.0672454 0.0167546 0 0 0 -1.75866 1.53399 -1.96432 -0.0511447 -0.310246 0.0060301 1 1 0 0 0 0 0 0 0 0 0 0 0 0 0 0 124 0.002 
791 3 0.00824905 0.0697373 0.0177651 0 0 0 -0.477157 -0.371892 -0.514255 0 -0.000164368 0 0 0 0 0 0 0 0 0 0 0 0 0 0 0 0 0 159 0.002 
589 16 0.00396534 0.0709962 0.016858 0 0 0 0.39141 2.33268 -0.357565 0.0664642 -0.0189891 -0.0549023 0 1 0 0 0 0 0 0 0 0 0 0 0 0 0 1 192 0.002 
282 11 0.0126463 0.070521 0.0174634 0 0 0 0.0226937 -0.135129 -1.27932 0 -0.000164368 0 0 0 0 0 0 0 0 0 0 0 0 0 0 0 0 0 203 0.002 
1833 5 0.00297819 0.0746336 0.0177674 0 0 0 0.0584248 0.884095 0.364321 0.00930815 0.209064 0.00689141 0 0 0 0 2 0 0 0 0 0 0 0 0 0 0 1 84 0.002 
847 5 0.010279 0.073775 0.0177266 0 0 0 -0.396706 -0.316827 -0.174209 0 -0.000164368 0 0 0 0 0 0 0 0 0 0 0 0 0 0 0 0 0 185 0.002 
361 2 0.00574727 0.0686874 0.0211437 0 0 0 1.1578 2.03626 1.24599 0.0546974 -0.129886 -0.050405 0 1 0 0 0 0 0 0 0 0 0 0 0 0 0 0 176 0.002 
1863 1 0.00304452 0.0715233 0.0213175 0 0 0 -0.0450554 0.711792 0.645084 -0.0523192 0.13099 0.0350553 1 1 0 0 0 0 0 0 0 0 0 0 0 0 0 0 79 0.002 
899 1 0.00640844 0.0732531 0.0196735 0 0 0 -0.0626078 -0.109741 -0.120426 0 -0.000164368 0 0 0 0 0 0 0 0 0 0 0 0 0 0 0 0 0 170 0.002 
598 6 0.0136394 0.0738208 0.0200695 0 0 0 -0.187431 -0.0412874 -0.372745 0 -0.000164368 0 0 0 0 0 0 0 0 0 0 0 0 0 0 0 0 0 182 0.002 
193 7 0.0183859 0.0744519 0.0205626 0 0 0 -0.0404246 1.43456 -0.000523401 0.0262787 -0.0515773 0.108787 0 0 0 0 0 0 2 0 0 0 0 0 0 0 0 0 72 0.002 
2123 6 0.00976288 0.0689238 0.0229445 0 0 0 -0.416177 0.465049 -0.296667 0.00174766 -7.53556e-05 0.000521861 0 0 0 0 0 1 0 0 0 0 0 0 0 0 0 0 62 0.002 
605 8 0.0153091 0.0701833 0.0207417 0 0 0 0.0841551 3.24616 -1.65761 0 -0.000164368 0 0 0 0 0 0 0 0 0 0 0 0 0 0 0 0 0 198 0.002 
1268 3 0.00673606 0.0730601 0.0329992 0 0 0 0.0727603 -0.181928 0.00730696 0 -0.000164368 0 0 0 0 0 0 0 0 0 0 0 0 0 0 0 0 0 81 0.002 
1097 8 0.00966906 0.072969 0.0228572 0 0 0 0.0262253 -0.120752 -0.353964 1.44339e-05 -0.000684595 0.000311419 0 0 0 0 0 0 0 0 0 0 0 0 0 0 0 0 183 0.002 
104 5 0.0029951 0.0620316 0.0241797 0 0 0 0.14009 0.486738 0.16938 -0.0483207 -0.0360973 -0.0137603 0 0 0 0 2 0 0 0 0 0 0 0 0 0 0 0 120 0.002 
1350 14 0.00623621 0.0642457 0.0243665 0 0 0 0.812626 0.905111 -0.0987872 0.0436327 0.0244397 -0.00208159 0 0 0 0 1 0 0 0 0 0 0 0 0 0 0 0 181 0.002 
2018 8 0.00682444 0.0680676 0.0256126 0 0 0 0.525066 0.566695 0.412802 0 -0.000164368 0 0 0 0 0 0 0 0 0 0 0 0 0 0 0 0 0 63 0.002 
654 9 0.00303324 0.0694965 0.0247493 0 0 0 0.0551306 0.0256781 0.132838 -0.0023782 -0.00159711 0.0153497 1 0 0 0 0 0 0 0 0 0 0 0 0 0 0 0 199 0.002 
147 9 0.0163934 0.0686676 0.0257348 0 0 0 1.20265 0.0942961 -0.161018 -0.0134355 -0.0408484 0.0166625 0 0 0 0 0 0 0 0 1 0 0 0 0 0 0 0 149 0.002 
2158 8 0.0068021 0.0721507 0.0255559 0 0 0 0.0938981 -0.19639 -0.101824 0 -0.000164368 0 0 0 0 0 0 0 0 0 0 0 0 0 0 0 0 0 34 0.002 
868 3 0.0130054 0.0708511 0.0242669 0 0 0 -0.0264739 -0.11755 -0.163978 -0.00174766 -0.000253381 -0.000521861 0 0 0 0 0 1 0 0 0 0 0 0 0 0 0 0 162 0.002 
1829 2 0.0165122 0.0726034 0.0255149 0 0 0 0.0688319 0.639049 0.17283 -0.0276719 -0.0366335 -0.00852685 0 1 0 0 0 0 0 0 1 0 0 0 0 0 0 0 73 0.002 
1667 1 0.00301428 0.0736768 0.0248256 0 0 0 0.0131274 -0.133074 -0.137402 0 -0.000164368 0 0 0 0 0 0 0 0 0 0 0 0 0 0 0 0 0 79 0.002 
1532 3 0.0122846 0.0560841 0.0276593 0 0 0 -0.221445 -0.44547 -0.25091 0 -0.000164368 0 0 0 0 0 0 0 0 0 0 0 0 0 0 0 0 0 85 0.002 
1637 7 0.00301702 0.0631275 0.0280152 0 0 0 0.0390805 -0.138318 0.0329252 -0.00188313 0.0144306 0.0161997 0 0 0 0 1 0 0 0 0 0 0 0 0 0 0 0 115 0.002 
587 9 0.00960068 0.0643926 0.0268056 0 0 0 0.268321 0.860144 -0.612799 0.000352114 -0.000809748 -0.000334098 0 0 0 0 0 0 0 0 1 0 0 0 0 0 0 0 229 0.002 
333 2 0.00659843 0.0614196 0.0287149 0 0 0 0.994314 1.04166 -0.194745 0 -0.000164368 0 0 0 0 0 0 0 0 0 0 0 0 0 0 0 0 0 135 0.002 
2101 3 0.00312478 0.0672169 0.0286379 0 0 0 0.258609 0.0753024 0.0541392 0 -0.000164368 0 0 0 0 0 0 0 0 0 0 0 0 0 0 0 0 0 51 0.002 
2076 1 0.00713808 0.0661789 0.0293914 0 0 0 -0.00229113 -0.228711 -0.0113697 -0.000352114 0.000481011 0.000334098 0 0 0 0 0 0 0 0 1 0 0 0 0 0 0 0 68 0.002 
1098 3 0.0106734 0.0680486 0.0292479 0 0 0 0.0318713 -0.304867 -0.0526769 0 -0.000164368 0 0 0 0 0 0 0 0 0 0 0 0 0 0 0 0 0 151 0.002 
1576 5 0.0157192 0.0703068 0.02936 0 0 0 0.175467 -0.0820337 0.0454027 -0.0191485 0.0176649 -0.069966 0 0 0 0 2 0 0 0 0 0 0 0 0 0 0 0 144 0.002 
157 4 0.0044968 0.0710654 0.0286648 0 0 0 0.21273 0.309002 0.310144 0.00387241 -0.00733134 -0.004594 0 0 0 0 0 0 0 0 0 0 0 0 0 0 0 0 73 0.002 
178 7 0.0120124 0.0720955 0.0281623 0 0 0 -0.0734274 -0.146417 -0.123346 0 -0.000164368 0 0 0 0 0 0 0 0 0 0 0 0 0 0 0 0 0 191 0.002 
1805 4 0.00299555 0.0747561 0.0289103 0 0 0 0.00790153 0.135155 -0.0481657 -0.00719817 -0.00286508 0.0051994 0 0 0 1 0 0 0 0 0 0 0 0 0 0 0 0 101 0.002 
2133 7 0.00823766 0.0728374 0.0292831 0 0 0 -0.0965309 -0.285795 -0.0852006 0 -0.000164368 0 0 0 0 0 0 0 0 0 0 0 0 0 0 0 0 0 43 0.002 
1284 3 0.0159076 0.0748363 0.0295427 0 0 0 -0.0801481 -0.25153 -0.00853352 -0.000127433 -0.00122606 0.001164 0 0 1 0 0 0 0 0 0 0 0 0 0 0 0 0 171 0.002 
1653 5 0.0134616 0.0536528 0.0323514 0 0 0 0.0941815 -0.26826 0.195938 0 -0.000164368 0 0 0 0 0 0 0 0 0 0 0 0 0 0 0 0 0 156 0.002 
2194 3 0.0131409 0.0749739 0.0250477 0 0 0 -0.0498942 -0.189031 -0.0472147 -8.50313e-05 -0.00223407 -0.000399845 0 0 1 0 0 0 0 0 0 0 0 0 0 0 0 0 35 0.002 
591 2 0.0144828 0.0592401 0.0301682 0 0 0 -0.157829 -0.30737 -0.224726 0 -0.000164368 0 0 0 0 0 0 0 0 0 0 0 0 0 0 0 0 0 149 0.002 
998 6 0.00461686 0.0631056 0.0322416 0 0 0 -0.0633876 -0.0848027 -0.107719 -0.000183567 3.12182e-05 0.000106509 0 0 0 0 0 1 0 0 0 0 0 0 0 0 0 0 148 0.002 
1969 13 0.0123034 0.0637587 0.0307024 0 0 0 -0.0839338 -0.133884 -0.198685 4.42091e-05 -3.24581e-05 0.000171037 0 0 0 0 0 0 0 0 0 0 0 0 1 0 0 0 84 0.002 
2063 1 0.0138495 0.0725171 0.032414 0 0 0 -0.25504 -0.153368 0.55891 0.0278069 0.00950961 -0.0164107 1 0 0 0 0 0 0 0 0 0 0 0 0 0 0 0 39 0.002 
1329 5 0.00346034 0.0502014 0.0323991 0 0 0 0.359656 -1.19303 -0.514322 0 -0.000164368 0 0 0 0 0 0 0 0 0 0 0 0 0 0 0 0 0 125 0.002 
1157 1 0.00970412 0.056466 0.0329668 0 0 0 -0.0595534 -0.278635 0.182898 0 -0.000164368 0 0 0 0 0 0 0 0 0 0 0 0 0 0 0 0 0 72 0.002 
1912 1 0.00302413 0.0594035 0.0326845 0 0 0 0.00683986 -0.0859697 -0.00125821 0 -0.000164368 0 0 0 0 0 0 0 0 0 0 0 0 0 0 0 0 0 83 0.002 
1260 7 0.00697656 0.0599652 0.0329988 0 0 0 -0.0471213 -0.0422341 0.123375 0 -0.000164368 0 0 0 0 0 0 0 0 0 0 0 0 0 0 0 0 0 132 0.002 
865 7 0.0114775 0.0602429 0.0328914 0 0 0 -0.0157056 -0.154854 -0.0496123 0 -0.000164368 0 0 0 0 0 0 0 0 0 0 0 0 0 0 0 0 0 171 0.002 
233 7 0.0181638 0.074511 0.0329305 0 0 0 -0.101911 -0.216341 0.0426783 0 -0.000164368 0 0 0 0 0 0 0 0 0 0 0 0 0 0 0 0 0 111 0.002 
1773 7 0.00838966 0.0645613 0.0329657 0 0 0 -0.0222221 -0.30176 0.0363064 0 -0.000164368 0 0 0 0 0 0 0 0 0 0 0 0 0 0 0 0 0 76 0.002 
2070 3 0.0154462 0.0649004 0.0329561 0 0 0 -0.223991 0.606113 0.189669 0.00847342 -0.0769124 -0.0228238 0 0 1 0 0 0 0 0 0 0 0 0 0 0 0 0 41 0.002 
1002 4 0.00335888 0.0668438 0.0329008 0 0 0 -0.0549277 -0.0905378 0.0531204 0.000183567 -0.000359954 -0.000106509 0 0 0 0 0 1 0 0 0 0 0 0 0 0 0 0 145 0.002 
273 2 0.0116647 0.0669646 0.033005 0 0 0 0.00876143 -0.207622 -0.0367221 -0.000847116 0.00196125 -0.00204719 0 1 0 0 0 0 0 0 0 0 0 0 1 0 0 0 135 0.002 
517 2 0.00707327 0.0683821 0.0328094 0 0 0 0.0824143 -0.267419 -0.00195172 0 -0.000164368 0 0 0 0 0 0 0 0 0 0 0 0 0 0 0 0 0 200 0.002 
1951 1 0.0157391 0.0688386 0.0330276 0 0 0 0.027662 0.37949 -0.1212 -0.00385749 0.0194809 0.043018 0 0 1 0 1 0 0 0 0 0 0 0 0 0 0 0 89 0.002 
380 4 0.00300948 0.0715332 0.0329894 0 0 0 0.0193218 -0.177009 -0.0199075 0 -0.000164368 0 0 0 0 0 0 0 0 0 0 0 0 0 0 0 0 0 142 0.002 
1618 1 0.0103355 0.0707337 0.0328817 0 0 0 -0.259303 -0.235074 0.144311 -0.0272244 -0.0134136 0.0142034 0 1 0 0 0 0 0 0 0 0 0 0 0 0 0 0 89 0.002 
814 6 0.011946 0.0505893 0.010479 0 0 0 -2.44485 -3.45127 7.82315 0 -0.000164368 0 0 0 0 0 0 0 0 0 0 0 0 0 0 0 0 0 197 0.002 
1981 1 0.0181909 0.0759571 -0.0324465 0 0 0 -0.572934 -0.892471 -1.1131 0 -0.000164368 0 0 0 0 0 0 0 0 0 0 0 0 0 0 0 0 0 88 0.002 
704 3 0.0101524 0.0805957 -0.0309197 0 0 0 -1.52011 0.419219 2.35603 0 -0.000164368 0 0 0 0 0 0 0 0 0 0 0 0 0 0 0 0 0 155 0.002 
1335 15 0.0154002 0.0817222 -0.0310922 0 0 0 -0.866054 0.208443 1.13148 0 -0.000164368 0 0 0 0 0 0 0 0 0 0 0 0 0 0 0 0 0 163 0.002 
2108 9 0.00402166 0.0881001 -0.0313452 0 0 0 0.263785 0.100796 0.573949 0 -0.000164368 0 0 0 0 0 0 0 0 0 0 0 0 0 0 0 0 0 63 0.002 
2115 3 0.0118207 0.0894076 -0.0327014 0 0 0 -1.63151 1.20685 0.710241 0 -0.000164368 0 0 0 0 0 0 0 0 0 0 0 0 0 0 0 0 0 61 0.002 
1445 3 0.00296944 0.0936763 -0.0330177 0 0 0 0.00119203 0.0941285 0.00286203 -0.00555309 -0.00532824 0.0124037 0 0 2 0 0 0 0 0 0 0 0 0 0 0 0 0 111 0.002 
796 1 0.0106846 0.0936019 -0.0314261 0 0 0 0.0580296 0.192978 0.573165 0.0175361 -0.0727304 -0.0175805 1 0 0 0 0 0 0 0 0 0 0 0 0 0 0 0 169 0.002 
1594 4 0.0169473 0.0920792 -0.0329956 0 0 0 -0.627301 0.614808 0.0499033 0 -0.000164368 0 0 0 0 0 0 0 0 0 0 0 0 0 0 0 0 0 64 0.002 
1901 1 0.00682484 0.0937932 -0.0322266 0 0 0 0.155501 -0.103478 -0.0181906 0.0066405 -0.0342782 0.00713122 0 0 1 0 0 0 0 0 0 0 0 0 0 0 0 0 71 0.002 
476 2 0.0139917 0.0953267 -0.0328931 0 0 0 0.0985287 0.350615 0.0740712 0 -0.000164368 0 0 0 0 0 0 0 0 0 0 0 0 0 0 0 0 0 194 0.002 
1958 12 0.0048287 0.0971998 -0.0330104 0 0 0 -0.223704 -0.138111 0.0661654 0.0314993 0.0103536 -0.000905849 0 0 1 0 0 0 0 0 0 0 0 2 0 0 0 0 80 0.002 
520 1 0.00870102 0.0981122 -0.0330033 0 0 0 -0.0842507 0.24628 -0.0238743 0.0608891 -0.0275585 -0.0302971 2 0 0 0 0 0 0 0 0 0 0 1 0 0 0 0 173 0.002 
1941 5 0.0181316 0.0970447 -0.0330003 0 0 0 0.0469384 0.0439028 0.0616032 0.000678975 -0.00017187 -0.0003826 0 0 0 0 2 0 0 0 0 0 0 0 0 0 0 0 68 0.002 
197 4 0.00296583 0.100541 -0.0319359 0 0 0 -0.0322971 0.196178 0.195626 -0.0165143 -0.0121307 0.0139601 0 0 0 2 0 0 0 0 0 0 0 1 0 0 0 0 147 0.002 
1680 3 0.0132753 0.0994163 -0.0328554 0 0 0 -0.395996 0.380502 0.104069 -0.00408306 -0.0129016 0.0057812 0 0 1 0 0 0 0 0 0 0 0 0 0 0 0 0 122 0.002 
1308 1 0.00674784 0.101504 -0.032403 0 0 0 -0.271894 0.123222 -0.183209 -0.000655355 -0.0323582 -0.00799488 0 0 0 1 0 0 0 0 0 0 0 0 0 0 0 0 120 0.002 
58 4 0.0171372 0.100999 -0.0330099 0 0 0 -0.243922 0.0457188 0.0207079 -0.0079403 -0.0135253 -0.0132074 0 0 0 2 0 0 0 0 0 0 0 0 0 0 0 0 157 0.002 
529 6 0.00307206 0.104388 -0.0329112 0 0 0 -0.0287339 0.0706044 0.065972 -0.0173964 0.034666 -0.000857132 0 0 0 1 0 1 0 0 0 0 0 0 0 0 0 0 153 0.002 
241 1 0.00965866 0.104138 -0.032651 0 0 0 -0.219879 -0.0333682 -0.439478 0.0253784 0.00217326 -0.0117909 1 0 0 0 0 0 0 0 0 0 0 0 0 0 0 0 210 0.002 
1216 2 0.0136502 0.103386 -0.0329555 0 0 0 -0.204363 0.224372 0.0297012 0.00877412 0.000248611 -0.00480406 0 1 1 0 0 0 0 0 0 0 0 0 0 0 0 0 72 0.002 
214 4 0.00640259 0.106567 -0.032549 0 0 0 -0.086019 -0.114084 0.0193878 0.0224911 -0.00142791 -0.00523266 0 0 0 1 0 1 0 0 0 0 0 0 0 0 0 0 186 0.002 
1495 4 0.0139625 0.107352 -0.0326913 0 0 0 -0.201813 0.126637 0.221428 0.0119686 -0.00056458 0.0236472 0 1 0 2 0 0 0 0 0 0 0 0 0 0 0 0 109 0.002 
210 9 0.0100866 0.108035 -0.033024 0 0 0 -0.0119129 -0.0120277 -0.0404078 0.00896021 -0.00106526 0.00697532 1 0 0 2 0 0 0 0 0 0 0 0 0 0 0 0 107 0.002 
2068 13 0.00325278 0.0780116 -0.0306466 0 0 0 0.0992805 -0.876681 0.543073 0 -0.000164368 0 0 0 0 0 0 0 0 0 0 0 0 0 0 0 0 0 50 0.002 
2064 6 0.00375421 0.0838656 -0.031029 0 0 0 -0.263474 -0.310654 0.16623 0 -0.000164368 0 0 0 0 0 0 0 0 0 0 0 0 0 0 0 0 0 32 0.002 
1465 8 0.0122352 0.0862966 -0.0277924 0 0 0 -0.529017 3.58041 3.1333 0 -0.000164368 0 0 0 0 0 0 0 0 0 0 0 0 0 0 0 0 0 109 0.002 
121 8 0.00881297 0.0882884 -0.0296605 0 0 0 -2.18069 -0.0402757 1.30418 0.00514683 0.0104352 -0.00241949 0 0 0 0 0 0 0 1 0 0 0 0 0 0 0 0 176 0.002 
1987 8 0.0160189 0.0906543 -0.0293195 0 0 0 -1.69557 2.16344 -0.328333 -0.107793 -0.104637 -0.00880694 0 0 0 0 0 0 0 2 0 0 0 0 0 0 0 0 55 0.002 
2219 7 0.0119525 0.0905516 -0.0287365 0 0 0 -1.76235 0.170462 1.58203 -0.0083347 -0.0153283 -0.000657121 0 0 0 0 0 0 1 1 0 0 0 0 0 0 0 0 2 0.002 
2308 8 0.00696113 0.0972662 -0.0295392 0 0 0 -0.370913 0.580307 -0.160659 -0.0616572 0.0377147 0.00571353 1 0 0 0 0 0 0 1 0 0 0 0 0 0 0 0 8 0.002 
1662 8 0.0112756 0.0972558 -0.0300981 0 0 0 -0.113267 0.104665 0.125633 0.0499399 0.0343467 0.0172109 2 0 0 0 0 0 0 2 0 0 0 0 0 0 0 0 77 0.002 
2296 9 0.0156209 0.0976744 -0.0299539 0 0 0 -0.232682 -0.0348703 -0.0509525 0.000457542 3.95057e-05 -0.00185359 0 0 0 0 1 0 0 0 0 0 0 0 0 0 0 0 10 0.002 
826 1 0.0102363 0.101049 -0.030238 0 0 0 0.0294246 0.240911 0.187853 0.000176649 0.0368572 -0.0121758 1 0 0 0 0 0 0 1 0 0 0 0 0 0 0 0 138 0.002 
1056 1 0.0140713 0.101356 -0.0292624 0 0 0 0.171759 0.316091 0.55537 -0.0213975 0.0158541 -0.00385315 1 0 0 0 0 0 0 0 0 0 0 0 0 0 0 0 124 0.002 
1166 7 0.0161838 0.104747 -0.0293982 0 0 0 -0.359722 0.139719 0.628994 0.0452962 -0.0498737 -0.0273707 1 0 0 0 0 0 1 0 0 0 0 0 0 0 0 0 165 0.002 
1417 4 0.0029902 0.107939 -0.0310142 0 0 0 0.00747441 -0.0364207 -0.000778208 0.00135264 -0.00236869 0.000626636 0 0 0 0 0 0 0 0 0 0 0 0 0 0 0 0 82 0.002 
1973 9 0.0175864 0.108029 -0.0312459 0 0 0 -0.294827 -0.0642611 0.17278 0.00967545 0.00191595 0.00610794 0 0 0 1 0 0 0 0 1 0 0 0 0 0 0 0 45 0.002 
1499 5 0.0103863 0.08087 -0.0264945 0 0 0 -0.486433 0.957085 2.65734 0 -0.000164368 0 0 0 0 0 0 0 0 0 0 0 0 0 0 0 0 0 63 0.002 
1824 8 0.0187323 0.0851576 -0.0272603 0 0 0 0.308712 2.04186 0.975631 -0.00115581 0.00488922 0.0147379 0 0 0 0 0 0 0 1 0 0 0 0 0 0 0 0 97 0.002 
2093 7 0.00444622 0.0929913 -0.0287673 0 0 0 0.449545 0.237208 0.180804 0 -0.000164368 0 0 0 0 0 0 0 0 0 0 0 0 0 0 0 0 0 65 0.002 
708 2 0.00901903 0.0944052 -0.0277552 0 0 0 -0.475135 0.448403 0.113647 -0.00788769 -0.0270892 0.0158886 0 2 0 0 0 0 0 1 0 0 0 0 0 0 0 0 160 0.002 
527 2 0.0131161 0.0943282 -0.0281598 0 0 0 -1.09518 0.0162693 0.724479 0.0308676 0.0151334 -0.0200648 0 1 0 0 0 0 1 1 0 0 0 0 0 0 0 0 185 0.002 
983 12 0.00303673 0.0972433 -0.0287026 0 0 0 0.124478 0.186598 -0.100885 0 -0.000164368 0 0 0 0 0 0 0 0 0 0 0 0 0 0 0 0 0 160 0.002 
2119 1 0.00297828 0.101116 -0.0274703 0 0 0 -0.023444 -0.0893608 0.346898 -0.00923302 0.00688664 -0.00987929 1 0 0 0 0 0 0 0 0 0 0 0 0 0 0 0 53 0.002 
602 8 0.00685889 0.101309 -0.0281909 0 0 0 -0.0387947 0.146107 0.451122 -0.0107059 0.03018 -0.0307447 2 0 0 0 0 0 0 2 0 0 0 0 0 0 0 0 208 0.002 
1913 2 0.0030421 0.105152 -0.0279203 0 0 0 0.0794446 -0.016858 0.0671406 0 -0.000164368 0 0 0 0 0 0 0 0 0 0 0 0 0 0 0 0 0 59 0.002 
1956 4 0.0120302 0.104828 -0.0291022 0 0 0 -0.463613 -0.158288 0.215481 0.0212817 -0.0676134 -0.0127773 0 0 0 1 0 0 0 0 0 0 0 0 0 0 0 0 50 0.002 
1654 7 0.0059787 0.108011 -0.0282814 0 0 0 -0.0830224 -0.00493829 0.0548372 -0.00693335 0.0063218 -0.0053516 0 0 0 0 0 0 1 0 0 0 0 0 0 0 0 0 91 0.002 
1418 5 0.0100311 0.108027 -0.0279261 0 0 0 -0.146174 -0.083298 0.00458814 -0.00123205 0.00850184 0.00116651 0 0 0 1 0 0 0 0 0 0 0 0 0 0 0 0 111 0.002 
1122 3 0.0143609 0.108025 -0.0280834 0 0 0 0.0765034 0.0346322 -0.125223 -0.00587327 0.0193359 0.0214027 0 0 1 0 0 0 1 0 0 0 0 0 0 0 0 0 115 0.002 
1352 5 0.00517613 0.0821061 -0.0267297 0 0 0 0.00685786 2.85991 -3.29392 0.00581273 -0.0638615 0.121336 0 0 0 0 1 0 0 0 0 0 0 0 0 0 0 0 106 0.002 
2112 2 0.00571215 0.0880224 -0.0262594 0 0 0 0.733804 -0.486973 0.217565 -0.122103 -0.0747476 0.0194686 0 1 0 0 0 0 0 0 0 0 0 0 0 0 0 0 58 0.002 
29 5 0.00959345 0.0882258 -0.0254479 0 0 0 -0.816726 -0.0943278 -0.397285 0.122103 0.0744189 -0.0194686 0 1 0 0 0 0 0 0 0 0 0 0 0 0 0 0 175 0.002 
597 1 0.0155426 0.0923166 -0.0257646 0 0 0 -0.591254 0.708425 0.725896 0.1117 -0.0743737 -0.156201 3 1 0 0 0 0 0 1 0 0 0 0 0 0 0 0 146 0.002 
1090 6 0.0113584 0.0940297 -0.0245741 0 0 0 -1.47155 0.40315 0.732816 0.0249172 -0.0106911 -0.0149223 0 1 0 0 0 1 0 0 0 0 0 0 0 0 0 0 130 0.002 
1058 3 0.0160799 0.0961986 -0.0258498 0 0 0 -0.383016 0.797106 0.90777 0.0184877 0.0360253 -0.0168332 1 0 2 0 0 0 0 0 0 0 0 0 0 0 0 0 154 0.002 
1943 1 0.00939063 0.0986772 -0.0266777 0 0 0 0.0623108 0.270952 -0.0441781 0.036504 -0.0173371 0.00945787 3 0 0 0 0 0 0 1 0 0 0 0 0 0 0 0 67 0.002 
631 2 0.0127656 0.0981516 -0.0246558 0 0 0 -0.386446 0.532133 0.63997 0.0289416 -0.0316181 -0.0175246 1 1 0 0 0 0 0 0 0 0 0 0 0 0 0 0 193 0.002 
1049 6 0.00569356 0.0986872 -0.0252319 0 0 0 -0.0784277 -0.137999 0.0390022 0.0342213 -0.00655079 -0.0110847 1 0 0 0 0 2 0 0 0 0 0 0 0 0 0 0 140 0.002 
1572 2 0.0164486 0.100121 -0.0261567 0 0 0 0.0369612 0.430618 0.301972 -0.00743912 0.0811718 -0.0327659 0 3 1 0 0 0 0 0 0 0 0 0 0 0 0 0 101 0.002 
429 8 0.0104157 0.102374 -0.0255978 0 0 0 -0.028344 0.259927 0.460825 0.0245561 -0.019942 0.00410943 1 0 0 0 0 0 0 1 0 0 0 0 0 0 0 0 95 0.002 
168 2 0.0073949 0.104815 -0.0263936 0 0 0 -0.106014 0.132836 0.232985 -0.00662169 -0.00702426 0.0132492 0 2 0 0 0 0 1 2 0 0 0 0 0 0 0 0 126 0.002 
1176 4 0.0184899 0.103557 -0.0261766 0 0 0 0.298416 0.241683 0.223884 -0.00851093 0.00688922 0.00500063 0 1 0 2 0 0 0 0 0 0 0 0 0 0 0 0 165 0.002 
2216 2 0.0125374 0.106346 -0.0250071 0 0 0 -0.629139 -0.129816 -0.636445 -0.0109178 0.00804333 0.0176854 0 2 1 0 0 0 0 0 0 0 0 0 0 0 0 0 15 0.002 
937 2 0.0178084 0.107493 -0.0260902 0 0 0 -0.033653 0.508916 0.266537 0.000405243 -0.0198937 -0.000490932 0 0 0 1 0 0 0 0 0 0 0 0 0 0 0 0 152 0.002 
1665 2 0.0029997 0.107951 -0.0250382 0 0 0 0.00205487 -0.0442037 0.0914611 -4.73289e-06 -0.000162731 -1.7083e-06 0 0 0 0 0 0 0 0 0 0 0 0 0 0 0 0 99 0.002 
2324 6 0.0094298 0.0758479 -0.0269477 0 0 0 3.39727 -1.76808 -7.95109 -0.58135 0.0127521 -0.498057 0 0 0 0 0 1 0 0 0 0 0 0 0 0 0 0 1 0.002 
1752 2 0.0161121 0.0886566 -0.0242726 0 0 0 -0.0498964 0.845454 -2.31584 -0.100154 -0.0103498 0.144693 1 0 0 0 0 0 0 0 0 0 0 0 0 0 0 0 61 0.002 
2090 4 0.00387678 0.0899497 -0.0226077 0 0 0 -0.899965 -0.0263487 -0.0193779 0 -0.000164368 0 0 0 0 0 0 0 0 0 0 0 0 0 0 0 0 0 39 0.002 
1388 4 0.0140408 0.0916999 -0.022183 0 0 0 -0.267713 0.110355 0.744361 0.0152171 -0.00499388 -0.0232169 1 0 0 0 0 0 0 0 0 0 0 0 0 0 0 0 162 0.002 
1765 6 0.00298363 0.0959159 -0.0243647 0 0 0 -0.0370263 -0.115367 0.233306 0.013553 0.0034959 -0.00263182 0 0 0 0 0 0 0 0 0 0 0 0 0 0 0 0 106 0.002 
1568 8 0.00723419 0.0947645 -0.0242044 0 0 0 -0.271491 -0.0734682 0.744781 0.00248336 -0.00876711 -0.017597 0 1 0 0 0 0 0 1 0 0 0 0 0 0 0 0 113 0.002 
1399 5 0.016946 0.094836 -0.0222206 0 0 0 -0.749254 -0.144753 0.784065 0.00368254 0.00213294 0.0204334 0 0 1 0 0 0 0 0 0 0 0 0 0 0 0 0 133 0.002 
852 7 0.00931864 0.097795 -0.0226577 0 0 0 -0.0194128 -0.0461637 0.17792 0.00380805 0.00464003 0.002378 0 0 0 0 0 0 1 1 0 0 0 0 0 0 0 0 161 0.002 
734 1 0.00297682 0.0997301 -0.0225467 0 0 0 -0.00354045 -0.0860247 0.228068 0.0179774 0.000776765 0.00359619 1 0 0 0 0 1 0 0 0 0 0 0 0 0 0 0 137 0.002 
1582 8 0.00684435 0.1021 -0.0235271 0 0 0 -0.201223 -0.0571429 -0.00840574 0.00151463 -0.00160838 -0.000663354 0 1 0 0 0 1 0 1 0 0 0 0 0 0 0 0 108 0.002 
1756 5 0.0142724 0.102867 -0.0243645 0 0 0 0.00750718 0.166083 0.369156 -0.0451819 0.0098573 0.0316631 0 2 0 0 0 0 0 0 0 0 0 0 0 0 0 0 96 0.002 
2012 4 0.0181998 0.101083 -0.0225965 0 0 0 0.323045 -0.290863 0.17656 -0.0129563 0.030293 0.00259134 0 0 0 2 0 0 0 0 0 0 0 0 0 0 0 0 69 0.002 
804 4 0.00301064 0.103502 -0.0240693 0 0 0 0.00103183 0.0481573 0.086116 0 -0.000164368 0 0 0 0 0 0 0 0 0 0 0 0 0 0 0 0 0 125 0.002 
962 1 0.0068889 0.108019 -0.0240941 0 0 0 -0.0432911 0.0714625 0.0622378 -0.0106002 -0.0171413 -0.00941447 0 1 0 0 0 0 0 0 0 0 0 0 0 0 0 0 151 0.002 
2081 2 0.0187247 0.108024 -0.0222331 0 0 0 -0.11277 -0.0833631 0.221715 0.00989489 -0.0394504 -0.00098803 0 0 0 0 0 0 0 0 0 0 0 0 0 0 0 0 35 0.002 
439 2 0.0053741 0.0808898 -0.022971 0 0 0 0.32646 -0.392584 -1.18981 -0.00581273 0.0635327 -0.121336 0 0 0 0 1 0 0 0 0 0 0 0 0 0 0 0 155 0.002 
1347 3 0.0184759 0.0825417 -0.0212344 0 0 0 -0.51512 -0.456654 0.551441 0 -0.000164368 0 0 0 0 0 0 0 0 0 0 0 0 0 0 0 0 0 146 0.002 
332 7 0.0141035 0.086635 -0.0211918 0 0 0 0.99732 0.347363 0.291301 0 -0.000164368 0 0 0 0 0 0 0 0 0 0 0 0 0 0 0 0 0 159 0.002 
1194 8 0.00488027 0.0934954 -0.020648 0 0 0 -0.171283 -0.115357 0.23777 0 -0.000164368 0 0 0 0 0 0 0 0 0 0 0 0 0 0 0 0 0 157 0.002 
339 6 0.00816409 0.0915563 -0.0219994 0 0 0 -0.360739 -0.10158 -0.0850612 0 -0.000164368 0 0 0 0 0 0 0 0 0 0 0 0 0 0 0 0 0 196 0.002 
987 4 0.0130637 0.0956275 -0.0213728 0 0 0 -0.77663 0.228854 0.49495 0.0245258 -0.0202567 -0.0285773 0 0 0 1 0 1 0 0 0 0 0 0 0 0 0 0 141 0.002 
310 1 0.0184325 0.0977931 -0.0199575 0 0 0 0.0385599 -0.173235 0.329917 -0.00220043 0.0317462 -0.0206092 0 0 0 0 0 0 0 0 0 0 0 0 0 0 0 0 158 0.002 
1885 9 0.00609466 0.0984653 -0.0203987 0 0 0 -0.0732528 -0.26146 0.102342 0.00786981 -0.000709464 -0.00482706 1 0 0 0 0 0 1 0 2 0 0 0 0 0 0 0 104 0.002 
813 1 0.0145703 0.0993542 -0.0213099 0 0 0 -0.0785007 -0.042146 0.114215 -0.000842764 0.0112622 0.0264456 1 1 0 0 0 0 0 0 0 0 0 0 0 0 0 0 172 0.002 
2080 4 0.0103523 0.101562 -0.0216662 0 0 0 -0.164482 0.0567609 0.157414 0 -0.000164368 0 0 0 0 0 0 0 0 0 0 0 0 0 0 0 0 0 67 0.002 
930 3 0.00475446 0.103473 -0.0201973 0 0 0 -0.387034 -0.209297 0.290798 -0.052964 -0.0301951 0.0178744 0 0 1 0 0 0 0 0 0 0 0 0 0 0 0 0 159 0.002 
606 1 0.00826367 0.10499 -0.0211874 0 0 0 -0.377141 -0.189124 0.320257 0.0169181 -0.0109461 -0.00498973 3 0 1 0 0 0 0 1 0 0 0 0 0 0 0 0 179 0.002 
1570 7 0.012724 0.104701 -0.0209387 0 0 0 -0.145693 -0.0632408 -0.0401378 -0.00611419 -0.0236055 -0.01086 0 0 0 0 0 0 2 0 0 0 0 0 0 0 0 0 118 0.002 
2229 3 0.0167197 0.104577 -0.0213872 0 0 0 0.163759 -0.315437 0.0749683 -0.00069809 0.0109306 0.00353188 0 0 0 1 0 0 0 0 0 0 0 0 0 0 0 0 17 0.002 
948 4 0.00298514 0.107401 -0.0210656 0 0 0 -0.0978553 -0.0466234 0.0754486 0.0211686 0.00319738 0.00990012 0 0 0 1 0 0 0 0 0 0 0 0 0 0 0 0 161 0.002 
795 6 0.0106603 0.108023 -0.0219586 0 0 0 -0.359104 -0.126674 -0.0493855 0.0299227 0.0210498 -0.0220887 1 1 0 0 0 0 0 0 0 0 0 0 0 0 0 0 111 0.002 
1592 3 0.0148644 0.10802 -0.0206664 0 0 0 -0.0892168 -0.119431 0.0712512 0.0150265 0.0132252 -0.00748819 0 0 0 0 0 0 1 0 0 0 0 0 0 0 0 0 132 0.002 
251 5 0.00313518 0.083498 -0.0197459 0 0 0 0.701231 -0.850494 -0.0917644 0 -0.000164368 0 0 0 0 0 0 0 0 0 0 0 0 0 0 0 0 0 216 0.002 
905 3 0.0111631 0.0836212 -0.020091 0 0 0 -1.86889 -0.69071 -1.79193 0 -0.000164368 0 0 0 0 0 0 0 0 0 0 0 0 0 0 0 0 0 133 0.002 
1645 1 0.0101797 0.0883826 -0.0200499 0 0 0 -0.176814 -0.681333 -0.853509 0 -0.000164368 0 0 0 0 0 0 0 0 0 0 0 0 0 0 0 0 0 110 0.002 