ITEM: TIMESTEP
18650000
ITEM: NUMBER OF ATOMS
2254
ITEM: BOX BOUNDS ff ff ff
-0.01 0.45
-0.15 0.15
-0.08 0.1
ITEM: ATOMS id type x y z ix iy iz vx vy vz fx fy fz c_cc_1 c_cc_2 c_cc_3 c_cc_4 c_cc_5 c_cc_6 c_cc_7 c_cc_8 c_cc_9 c_cc_10 c_cc_11 c_cc_12 c_cc_13 c_cc_14 c_cc_15 c_cc_16 f_fppacc radius 
2162 7 0.00893289 -0.0503669 -0.0280404 0 0 0 -0.0993422 -6.25068 11.3998 0 -0.000164368 0 0 0 0 0 0 0 0 0 0 0 0 0 0 0 0 0 28 0.002 
2112 2 0.00499036 -0.0480887 -0.0201306 0 0 0 0.3336 -2.93913 3.86175 0 -0.000164368 0 0 0 0 0 0 0 0 0 0 0 0 0 0 0 0 0 57 0.002 
92 2 0.00608706 -0.0563566 -0.0103195 0 0 0 3.2782 -7.56636 15.0758 0 -0.000164368 0 0 0 0 0 0 0 0 0 0 0 0 0 0 0 0 0 193 0.002 
1787 5 0.0141606 -0.044657 0.0352786 0 0 0 -0.918076 23.9659 20.2245 0 -0.000164368 0 0 0 0 0 0 0 0 0 0 0 0 0 0 0 0 0 99 0.002 
527 2 0.00483805 -0.0451539 0.0354792 0 0 0 -0.642469 6.80005 9.40729 0 -0.000164368 0 0 0 0 0 0 0 0 0 0 0 0 0 0 0 0 0 181 0.002 
813 1 0.00766644 -0.0429332 0.0386651 0 0 0 0.340448 6.95033 9.2159 -0.0143439 0.180979 -0.153644 0 0 0 0 0 0 0 0 0 0 0 0 0 0 0 0 169 0.002 
2321 9 0.00372908 -0.0318126 -0.0476446 0 0 0 2.45403 -15.4218 10.3242 0 -0.000164368 0 0 0 0 0 0 0 0 0 0 0 0 0 0 0 0 0 0 0.002 
894 2 0.00724227 -0.0128651 -0.0522616 0 0 0 0.371542 -3.94275 -2.33805 0 -0.000164368 0 0 0 0 0 0 0 0 0 0 0 0 0 0 0 0 0 164 0.002 
933 2 0.0036922 -0.00431419 -0.0459371 0 0 0 0.531357 -0.466424 3.42616 0 -0.000164368 0 0 0 0 0 0 0 0 0 0 0 0 0 0 0 0 0 154 0.002 
1873 4 0.0158722 -0.017662 -0.0415077 0 0 0 0.318063 -3.20182 -0.563262 0 -0.000164368 0 0 0 0 0 0 0 0 0 0 0 0 0 0 0 0 0 37 0.002 
1777 5 0.0116471 -0.031611 0.0461388 0 0 0 0.357473 8.0382 5.97828 0 -0.000164368 0 0 0 0 0 0 0 0 0 0 0 0 0 0 0 0 0 92 0.002 
2316 3 0.00872179 -0.0364122 0.0448013 0 0 0 -0.595306 7.32094 7.1294 0 -0.000164368 0 0 0 0 0 0 0 0 0 0 0 0 0 0 0 0 0 1 0.002 
1047 3 0.00833515 0.0128999 -0.047765 0 0 0 0.628676 -2.08467 0.210562 0 -0.000164368 0 0 0 0 0 0 0 0 0 0 0 0 0 0 0 0 0 114 0.002 
1910 2 0.0038127 0.0316304 -0.0422894 0 0 0 0.124809 0.134644 0.506138 0 -0.000164368 0 0 0 0 0 0 0 0 0 0 0 0 0 0 0 0 0 66 0.002 
1082 4 0.00428101 0.0367049 -0.0118443 0 0 0 -0.209507 -2.62767 1.23639 -0.0965716 0.158903 0.119407 0 0 0 0 0 0 0 0 0 0 0 0 0 0 0 0 146 0.002 
945 4 0.00481285 0.0130981 -0.0311116 0 0 0 0.247586 -2.71107 0.0316211 0 -0.000164368 0 0 0 0 0 0 0 0 0 0 0 0 0 0 0 0 0 58 0.002 
1158 2 0.00372963 0.024658 -0.0254364 0 0 0 0.207976 -4.20459 -1.08796 0 -0.000164368 0 0 0 0 0 0 0 0 0 0 0 0 0 0 0 0 0 99 0.002 
2271 5 0.00888164 0.0189046 -0.0298365 0 0 0 0.0714802 -12.6268 -22.1142 0 -0.000164368 0 0 0 0 0 0 0 0 0 0 0 0 0 0 0 0 0 0 0.002 
542 6 0.0171433 0.0236733 -0.0231121 0 0 0 0.749822 -5.53584 1.26984 0 -0.000164368 0 0 0 0 0 0 0 0 0 0 0 0 0 0 0 0 0 134 0.002 
1594 4 0.00654954 0.0335572 -0.0122834 0 0 0 0.520409 -1.38557 0.148041 0.0965716 -0.159232 -0.119407 0 0 0 0 0 0 0 0 0 0 0 0 0 0 0 0 64 0.002 
332 7 0.00390674 0.0366468 0.00811349 0 0 0 -2.79902 13.0624 -10.7803 0 -0.000164368 0 0 0 0 0 0 0 0 0 0 0 0 0 0 0 0 0 159 0.002 
49 3 0.0112785 0.00976021 0.0568577 0 0 0 -3.53093 16.9352 -2.47784 0 -0.000164368 0 0 0 0 0 0 0 0 0 0 0 0 0 0 0 0 0 70 0.002 
944 5 0.00768977 0.0226056 0.0309961 0 0 0 0.358315 -1.11908 2.36098 0 -0.000164368 0 0 0 0 0 0 0 0 0 0 0 0 0 0 0 0 0 176 0.002 
665 4 0.0179959 0.0512983 -0.0355041 0 0 0 7.07153e-07 7.10225e-07 -3.44586e-09 -2.0064e-08 -1.46255e-08 -1.0877e-10 0 0 0 2 0 0 0 0 0 0 0 0 0 0 0 0 270 0.002 
393 1 0.013745 0.0541007 -0.0355 0 0 0 -4.74568e-147 -3.24829e-19 -6.17513e-12 -2.43591e-146 0 0 0 0 0 0 0 0 0 0 0 0 0 0 0 0 0 0 1 0.002 
1145 2 0.0126127 0.0650913 -0.0355 0 0 0 -1.36709e-75 1.64186e-19 4.80582e-15 -1.77367e-73 0 0 0 0 0 0 0 0 0 0 0 0 0 0 0 0 0 0 4 0.002 
465 6 0.0169539 0.0642906 -0.0355016 0 0 0 3.61842e-15 4.22965e-17 1.40735e-12 -1.11022e-16 2.77556e-17 0 0 0 0 0 0 1 0 0 0 0 0 0 0 0 0 0 20 0.002 
1125 4 0.00809015 0.0440454 -0.0361532 0 0 0 -2.91174 5.46802 -8.60766 0 -0.000164368 0 0 0 0 0 0 0 0 0 0 0 0 0 0 0 0 0 136 0.002 
1183 1 0.00361102 0.0485282 -0.0328883 0 0 0 -0.0345229 -1.09855 0.122762 0 -0.000164368 0 0 0 0 0 0 0 0 0 0 0 0 0 0 0 0 0 132 0.002 
1615 11 0.00437069 0.0580392 -0.0329571 0 0 0 0.357102 -0.486054 0.117793 0 -0.000164368 0 0 0 0 0 0 0 0 0 0 0 0 0 0 0 0 0 128 0.002 
931 3 0.00866038 0.0455674 -0.0311023 0 0 0 -0.035384 -1.11584 0.227919 0 -0.000164368 0 0 0 0 0 0 0 0 0 0 0 0 0 0 0 0 0 167 0.002 
1091 12 0.0159828 0.046824 -0.0290762 0 0 0 1.41199 -2.72758 0.946047 0 -0.000164368 0 0 0 0 0 0 0 0 0 0 0 0 0 0 0 0 0 126 0.002 
2295 1 0.0114911 0.0499426 -0.0309317 0 0 0 0.903143 -2.566 0.539526 0 -0.000164368 0 0 0 0 0 0 0 0 0 0 0 0 0 0 0 0 0 0 0.002 
351 8 0.00761667 0.0574814 -0.030075 0 0 0 1.22398 -0.784311 -0.514701 0 -0.000164368 0 0 0 0 0 0 0 0 0 0 0 0 0 0 0 0 0 112 0.002 
59 1 0.0031401 0.0656704 -0.0314131 0 0 0 0.297559 0.26899 -0.691953 0 -0.000164368 0 0 0 0 0 0 0 0 0 0 0 0 0 0 0 0 0 149 0.002 
1449 13 0.00964732 0.0690644 -0.0306372 0 0 0 -0.217705 1.41298 1.32026 0 -0.000164368 0 0 0 0 0 0 0 0 0 0 0 0 0 0 0 0 0 125 0.002 
574 1 0.00675731 0.0666983 -0.0286347 0 0 0 -0.814271 -2.01681 -0.277248 0 -0.000164368 0 0 0 0 0 0 0 0 0 0 0 0 0 0 0 0 0 146 0.002 
965 2 0.0118385 0.0652154 -0.028461 0 0 0 1.13005 -3.31643 -0.547457 0 -0.000164368 0 0 0 0 0 0 0 0 0 0 0 0 0 0 0 0 0 152 0.002 
372 3 0.0128742 0.0742719 -0.0284458 0 0 0 1.03033 -0.368409 -1.75421 0 -0.000164368 0 0 0 0 0 0 0 0 0 0 0 0 0 0 0 0 0 186 0.002 
585 8 0.00344559 0.0488086 -0.0261028 0 0 0 0.241502 -0.750979 -1.17496 0 -0.000164368 0 0 0 0 0 0 0 0 0 0 0 0 0 0 0 0 0 54 0.002 
1295 3 0.00408649 0.0551757 -0.0268477 0 0 0 -0.318436 -0.873345 -0.733414 0 -0.000164368 0 0 0 0 0 0 0 0 0 0 0 0 0 0 0 0 0 126 0.002 
890 1 0.00371269 0.0637197 -0.0276355 0 0 0 0.0197794 0.224625 -1.82614 0 -0.000164368 0 0 0 0 0 0 0 0 0 0 0 0 0 0 0 0 0 145 0.002 
2073 2 0.00909667 0.0706909 -0.0249587 0 0 0 0.867248 2.33882 0.156726 0 -0.000164368 0 0 0 0 0 0 0 0 0 0 0 0 0 0 0 0 0 38 0.002 
1716 6 0.0160463 0.0681528 -0.0245444 0 0 0 -1.46314 -1.77302 0.419089 0 -0.000164368 0 0 0 0 0 0 0 0 0 0 0 0 0 0 0 0 0 73 0.002 
143 8 0.00372553 0.0405669 -0.0223951 0 0 0 0.103702 -1.62648 0.519319 0 -0.000164368 0 0 0 0 0 0 0 0 0 0 0 0 0 0 0 0 0 163 0.002 
165 4 0.00836149 0.0570682 -0.0251638 0 0 0 -0.0470986 -2.16857 -2.15146 0 -0.000164368 0 0 0 0 0 0 0 0 0 0 0 0 0 0 0 0 0 183 0.002 
2134 10 0.0137129 0.0639078 -0.0249 0 0 0 -0.872118 -1.74613 -1.48491 0 -0.000164368 0 0 0 0 0 0 0 0 0 0 0 0 0 0 0 0 0 27 0.002 
439 2 0.0146366 0.0740626 -0.0246446 0 0 0 1.43396 2.70084 -1.64858 0 -0.000164368 0 0 0 0 0 0 0 0 0 0 0 0 0 0 0 0 0 154 0.002 
938 4 0.00885032 0.053356 -0.0232444 0 0 0 0.175227 -0.387242 -2.28054 0 -0.000164368 0 0 0 0 0 0 0 0 0 0 0 0 0 0 0 0 0 144 0.002 
311 2 0.0148585 0.0669789 -0.0207005 0 0 0 1.38437 -0.738658 0.0575143 0 -0.000164368 0 0 0 0 0 0 0 0 0 0 0 0 0 0 0 0 0 64 0.002 
310 1 0.00376113 0.0408985 -0.0175782 0 0 0 0.70964 -2.47476 0.289906 0 -0.000164368 0 0 0 0 0 0 0 0 0 0 0 0 0 0 0 0 0 158 0.002 
1652 6 0.00904149 0.0565317 -0.019024 0 0 0 -0.153851 0.329664 -0.83353 0 -0.000164368 0 0 0 0 0 0 0 0 0 0 0 0 0 0 0 0 0 98 0.002 
494 5 0.0094063 0.0638845 -0.0217613 0 0 0 1.38543 1.48347 -3.80663 0 -0.000164368 0 0 0 0 0 0 0 0 0 0 0 0 0 0 0 0 0 157 0.002 
2219 7 0.0136973 0.0386085 -0.015817 0 0 0 -0.312159 -2.90557 -0.098177 0 -0.000164368 0 0 0 0 0 0 0 0 0 0 0 0 0 0 0 0 0 0 0.002 
897 1 0.00507909 0.0740176 -0.0324437 0 0 0 1.57315 -3.72192 1.49547 0 -0.000164368 0 0 0 0 0 0 0 0 0 0 0 0 0 0 0 0 0 112 0.002 
1530 2 0.003437 0.0453185 -0.0105524 0 0 0 -1.43976 -2.6216 0.823584 0 -0.000164368 0 0 0 0 0 0 0 0 0 0 0 0 0 0 0 0 0 113 0.002 
1739 4 0.00408262 0.0700599 -0.0117133 0 0 0 0.263821 -0.445225 -2.18147 0 -0.000164368 0 0 0 0 0 0 0 0 0 0 0 0 0 0 0 0 0 117 0.002 
2164 1 0.00341039 0.0740824 0.00917045 0 0 0 0.147841 0.00918913 -0.207156 0 -0.000164368 0 0 0 0 0 0 0 0 0 0 0 0 0 0 0 0 0 36 0.002 
288 6 0.010101 0.0640429 0.000206771 0 0 0 -0.505654 -0.157605 -1.60023 0 -0.000164368 0 0 0 0 0 0 0 0 0 0 0 0 0 0 0 0 0 184 0.002 
2093 7 0.0124803 0.0700945 0.00283042 0 0 0 -1.98639 6.84041 -13.1602 0 -0.000164368 0 0 0 0 0 0 0 0 0 0 0 0 0 0 0 0 0 64 0.002 
1292 4 0.00949277 0.058181 0.00267972 0 0 0 2.26118 -3.87386 -1.18013 0 -0.000164368 0 0 0 0 0 0 0 0 0 0 0 0 0 0 0 0 0 152 0.002 
2090 4 0.00756584 0.0744901 0.00317707 0 0 0 -1.28059 -0.365442 -0.958393 0 -0.000164368 0 0 0 0 0 0 0 0 0 0 0 0 0 0 0 0 0 38 0.002 
1347 3 0.0171751 0.0700203 0.00617445 0 0 0 1.90965 2.18902 -2.60109 0 -0.000164368 0 0 0 0 0 0 0 0 0 0 0 0 0 0 0 0 0 145 0.002 
1050 4 0.0101335 0.0718715 0.00600966 0 0 0 -0.783913 0.290229 -0.711397 0 -0.000164368 0 0 0 0 0 0 0 0 0 0 0 0 0 0 0 0 0 127 0.002 
470 3 0.0170535 0.0611347 -0.0318819 0 0 0 -13.0025 -12.2508 -7.39966 0 -0.000164368 0 0 0 0 0 0 0 0 0 0 0 0 0 0 0 0 0 157 0.002 
1752 2 0.0125598 0.0734297 0.0121636 0 0 0 1.35876 1.73167 0.58788 0 -0.000164368 0 0 0 0 0 0 0 0 0 0 0 0 0 0 0 0 0 60 0.002 
597 1 0.0126659 0.0443656 0.0143336 0 0 0 -0.641134 -0.948659 1.31057 0 -0.000164368 0 0 0 0 0 0 0 0 0 0 0 0 0 0 0 0 0 141 0.002 
1734 8 0.0173455 0.0643138 0.0115668 0 0 0 -0.804022 0.331507 -1.50587 0 -0.000164368 0 0 0 0 0 0 0 0 0 0 0 0 0 0 0 0 0 87 0.002 
1399 5 0.00382069 0.0705099 0.0138221 0 0 0 0.170338 0.156085 -0.573407 0.0301596 0.519306 -0.0919154 0 0 0 0 1 0 0 0 0 0 0 0 0 0 0 0 132 0.002 
1471 6 0.0085053 0.0741551 0.0132638 0 0 0 0.0632718 0.0315414 0.0731985 -0.0316022 -0.033579 0.00698372 0 0 0 0 0 1 0 0 0 0 0 0 0 0 0 0 136 0.002 
1201 1 0.00761079 0.0649136 0.0136446 0 0 0 7.62429 4.39853 -10.1251 -0.00164477 0.412038 -0.0600121 1 0 0 0 0 0 0 0 0 0 0 0 0 0 0 0 138 0.002 
242 6 0.0032313 0.0666742 0.0150162 0 0 0 0.0772258 0.101512 -0.278575 0 -0.000164368 0 0 0 0 0 0 0 0 0 0 0 0 0 0 0 0 0 176 0.002 
647 2 0.00741281 0.0688332 0.0142119 0 0 0 1.15477 11.0404 -2.40995 -0.101455 -0.965402 0.134586 1 0 0 0 1 0 0 0 0 0 0 0 0 0 0 0 165 0.002 
1874 1 0.0105498 0.0659312 0.0160989 0 0 0 -0.0863768 0.385219 -0.0978605 0.0729405 0.0334007 0.0173417 0 0 0 0 0 0 0 0 0 0 0 0 0 0 0 0 82 0.002 
1061 2 0.0124786 0.0696697 0.0154721 0 0 0 -0.48174 0.849822 -0.759953 0 -0.000164368 0 0 0 0 0 0 0 0 0 0 0 0 0 0 0 0 0 177 0.002 
1335 15 0.00299804 0.0745851 0.0146495 0 0 0 -0.0433813 -0.0142105 -0.135644 0.00435199 -0.000179036 0.00173048 0 0 0 0 0 0 0 0 0 0 0 0 0 0 1 0 163 0.002 
512 2 0.00639514 0.0739605 0.0167819 0 0 0 -0.0624307 -0.111898 0.135241 0.00060352 -0.000798389 -0.000685409 0 2 0 0 0 0 0 0 0 0 0 0 0 0 0 0 194 0.002 
811 6 0.0105815 0.0741354 0.0166765 0 0 0 0.184319 -0.028507 -0.0123452 0.0041607 -0.00166584 -0.00662889 0 0 0 0 0 2 0 0 0 0 0 0 0 0 0 0 59 0.002 
905 3 0.00509545 0.062386 0.0160253 0 0 0 1.08038 6.8095 -5.81158 0.00249349 -0.00538751 -0.00204076 0 0 0 0 0 0 0 0 0 0 0 0 0 0 0 0 133 0.002 
1076 3 0.00302457 0.0645364 0.0186065 0 0 0 -0.194931 0.651804 -0.217514 -0.00249349 0.00505878 0.00204076 0 0 0 0 0 0 0 0 0 0 0 0 0 0 0 0 134 0.002 
1724 1 0.0169408 0.0698922 0.018252 0 0 0 -0.264642 -0.015459 -0.444594 0 -0.000164368 0 0 0 0 0 0 0 0 0 0 0 0 0 0 0 0 0 66 0.002 
627 1 0.00627856 0.0702349 0.0182067 0 0 0 -0.153219 -0.223275 -0.0967887 0.00231085 -0.00477929 -0.0002936 0 1 0 0 0 0 0 0 0 0 0 0 0 0 0 0 201 0.002 
2115 3 0.0175899 0.0660959 0.0193398 0 0 0 -0.139951 -0.176636 -0.881336 0 -0.000164368 0 0 0 0 0 0 0 0 0 0 0 0 0 0 0 0 0 61 0.002 
1388 4 0.00317426 0.0685956 0.020798 0 0 0 0.082968 -0.0669319 -0.190018 0 -0.000164368 0 0 0 0 0 0 0 0 0 0 0 0 0 0 0 0 0 160 0.002 
605 8 0.0137668 0.0679245 0.0197543 0 0 0 0.112034 -0.352586 -0.253446 0 -0.000164368 0 0 0 0 0 0 0 0 0 0 0 0 0 0 0 0 0 198 0.002 
1966 2 0.00307993 0.0723371 0.0193859 0 0 0 -0.16142 -0.0521895 -0.240978 0 -0.000164368 0 0 0 0 0 0 0 0 0 0 0 0 0 0 0 0 0 71 0.002 
1968 4 0.011427 0.0711989 0.0193779 0 0 0 -0.0138765 -0.205051 0.219572 0.0047634 0.00132409 -0.010212 0 0 0 0 0 0 0 0 0 0 0 0 0 0 0 0 82 0.002 
1352 5 0.00866008 0.0740465 0.0201681 0 0 0 0.256017 0.0537171 0.0284403 -0.000265864 -0.000903841 0.00461388 0 0 0 0 1 1 0 0 0 0 0 0 0 0 0 0 105 0.002 
373 3 0.0149775 0.0732204 0.019326 0 0 0 -0.0995372 0.160512 -0.0356593 -0.00628684 0.0173453 -0.0158895 0 0 1 0 0 0 0 0 0 0 0 0 0 0 0 0 152 0.002 
670 1 0.00487439 0.0632434 0.021938 0 0 0 -0.201388 -0.293396 -0.208198 0 -0.000164368 0 0 0 0 0 0 0 0 0 0 0 0 0 0 0 0 0 187 0.002 
1363 8 0.0090404 0.0644151 0.0220715 0 0 0 -0.0882635 -0.335094 -0.318321 0 -0.000164368 0 0 0 0 0 0 0 0 0 0 0 0 0 0 0 0 0 114 0.002 
1243 4 0.00944374 0.0684956 0.0215456 0 0 0 -0.02449 -0.221696 -0.0561918 -0.0047634 -0.00165283 0.010212 0 0 0 0 0 0 0 0 0 0 0 0 0 0 0 0 176 0.002 
1204 5 0.00665748 0.0713913 0.022438 0 0 0 -0.00528634 -0.0184349 0.0125496 0 -0.000164368 0 0 0 0 0 0 0 0 0 0 0 0 0 0 0 0 0 168 0.002 
791 3 0.0165541 0.0710747 0.0222697 0 0 0 0.0681751 0.0814214 -0.294796 0.0130701 -0.0236397 0.0226066 0 0 0 0 0 0 0 0 0 0 0 0 0 0 0 0 159 0.002 
251 5 0.012573 0.0738251 0.0226656 0 0 0 -0.0721224 0.0225959 0.08476 -0.00163889 0.00229145 -0.00522186 0 0 0 0 1 0 0 0 0 0 0 0 0 0 0 0 216 0.002 
285 1 0.00302654 0.065932 0.02504 0 0 0 -0.158061 -0.0585033 -0.0382455 0 -0.000164368 0 0 0 0 0 0 0 0 0 0 0 0 0 0 0 0 0 174 0.002 
306 5 0.00661623 0.0678566 0.0243243 0 0 0 -0.0635398 -0.192444 -0.117542 0 -0.000164368 0 0 0 0 0 0 0 0 0 0 0 0 0 0 0 0 0 195 0.002 
903 3 0.0106782 0.0676762 0.0256469 0 0 0 0.0919093 -0.168214 -0.153844 0 -0.000164368 0 0 0 0 0 0 0 0 0 0 0 0 0 0 0 0 0 157 0.002 
440 1 0.0147729 0.0671767 0.0237386 0 0 0 0.145541 -0.137972 -0.185245 0 -0.000164368 0 0 0 0 0 0 0 0 0 0 0 0 0 0 0 0 0 161 0.002 
1741 9 0.00973997 0.0717231 0.0251616 0 0 0 0.143566 -0.0528071 -0.12294 -0.00365539 -0.00183963 0.00105365 0 0 0 0 0 0 0 0 1 0 0 0 0 0 0 0 110 0.002 
2027 2 0.0136808 0.0710802 0.025342 0 0 0 0.0682045 -0.0344568 -0.050462 0.00529428 -0.000944921 0.00416821 0 0 0 0 1 0 0 0 1 0 0 0 0 0 0 0 57 0.002 
1070 2 0.00299556 0.0727742 0.0234131 0 0 0 -0.0040604 -0.0644254 -0.223193 -0.000334436 0.000784253 0.00248792 0 1 0 0 0 0 0 0 0 0 0 0 0 0 0 0 122 0.002 
1616 6 0.0179021 0.0626571 0.0255297 0 0 0 0.558512 -0.322506 -0.860828 0 -0.000164368 0 0 0 0 0 0 0 0 0 0 0 0 0 0 0 0 0 93 0.002 
361 2 0.00348556 0.0700454 0.026293 0 0 0 0.13469 -0.120497 -0.274693 -4.75406e-05 -0.000275032 8.96226e-05 0 0 0 0 0 0 0 0 0 0 0 0 0 0 0 0 175 0.002 
868 3 0.0175262 0.0719957 0.0261623 0 0 0 0.182452 -0.286486 -0.125018 0 -0.000164368 0 0 0 0 0 0 0 0 0 0 0 0 0 0 0 0 0 161 0.002 
1350 14 0.00614304 0.0732493 0.0260964 0 0 0 0.1546 0.204745 -0.262104 0 -0.000164368 0 0 0 0 0 0 0 0 0 0 0 0 0 0 0 0 0 180 0.002 
1520 2 0.0030444 0.058428 0.015378 0 0 0 2.003 -0.0750828 -17.2894 0 -0.000164368 0 0 0 0 0 0 0 0 0 0 0 0 0 0 0 0 0 78 0.002 
1499 5 0.00408474 0.0630897 0.0286601 0 0 0 0.4429 -0.20686 -0.321664 0 -0.000164368 0 0 0 0 0 0 0 0 0 0 0 0 0 0 0 0 0 63 0.002 
1645 1 0.0103188 0.0651061 0.0296404 0 0 0 -0.100012 -0.349976 -0.229919 0 -0.000164368 0 0 0 0 0 0 0 0 0 0 0 0 0 0 0 0 0 110 0.002 
1637 7 0.00421298 0.0671683 0.029052 0 0 0 -0.0524096 -0.0266117 -0.0177563 0 -0.000164368 0 0 0 0 0 0 0 0 0 0 0 0 0 0 0 0 0 114 0.002 
1653 5 0.0164694 0.0668515 0.0283285 0 0 0 -0.0699803 -0.281011 -0.15434 0 -0.000164368 0 0 0 0 0 0 0 0 0 0 0 0 0 0 0 0 0 155 0.002 
1329 5 0.00753719 0.0691374 0.0280041 0 0 0 -0.0695771 -0.02024 -0.175126 0 -0.000164368 0 0 0 0 0 0 0 0 0 0 0 0 0 0 0 0 0 125 0.002 
104 5 0.0115043 0.0694641 0.0297006 0 0 0 0.032282 -0.183568 0.0346147 0 -0.000164368 0 0 0 0 0 0 0 0 0 0 0 0 0 0 0 0 0 118 0.002 
2123 6 0.0156138 0.0708443 0.0295476 0 0 0 0.199686 -0.131352 -0.0230489 0 -0.000164368 0 0 0 0 0 0 0 0 0 0 0 0 0 0 0 0 0 61 0.002 
2101 3 0.00300535 0.0736105 0.0289321 0 0 0 0.00135027 -0.102482 -0.0463885 0 -0.000164368 0 0 0 0 0 0 0 0 0 0 0 0 0 0 0 0 0 50 0.002 
587 9 0.00869138 0.0726879 0.0294611 0 0 0 0.061568 -0.0829737 -0.0363023 0 -0.000164368 0 0 0 0 0 0 0 0 0 0 0 0 0 0 0 0 0 228 0.002 
1969 13 0.0124315 0.0737117 0.0283958 0 0 0 -0.000544615 -0.0776068 0.0141232 0 -0.000164368 0 0 0 0 0 0 0 0 0 0 0 0 0 0 0 0 0 83 0.002 
1576 5 0.016957 0.0747679 0.0297872 0 0 0 0.032604 -0.215347 -0.0453758 0 -0.000164368 0 0 0 0 0 0 0 0 0 0 0 0 0 0 0 0 0 142 0.002 
2328 8 0.0169922 0.0539421 0.0241673 0 0 0 5.47838 11.7464 -15.9004 0 -0.000164368 0 0 0 0 0 0 0 0 0 0 0 0 0 0 0 0 0 0 0.002 
1776 5 0.0167804 0.0639077 0.0316703 0 0 0 -0.167385 -0.513977 -0.0936414 0 -0.000164368 0 0 0 0 0 0 0 0 0 0 0 0 0 0 0 0 0 83 0.002 
998 6 0.00552982 0.0701179 0.0316669 0 0 0 0.363499 0.0865351 -0.359446 0 -0.000164368 0 0 0 0 0 0 0 0 0 0 0 0 0 0 0 0 0 146 0.002 
1912 1 0.0040609 0.0650576 0.0327319 0 0 0 -0.367319 0.26375 -0.0802732 0 -0.000164368 0 0 0 0 0 0 0 0 0 0 0 0 0 0 0 0 0 83 0.002 
1260 7 0.00794423 0.0671479 0.0329922 0 0 0 -0.143585 -0.0673514 -0.0821475 0 -0.000164368 0 0 0 0 0 0 0 0 0 0 0 0 0 0 0 0 0 132 0.002 
1157 1 0.0134346 0.0667826 0.0325529 0 0 0 -0.0562059 -0.270435 -0.0519712 0 -0.000164368 0 0 0 0 0 0 0 0 0 0 0 0 0 0 0 0 0 71 0.002 
1967 3 0.0181197 0.0684592 0.0329803 0 0 0 -0.0958334 -0.215031 -0.0137177 0 -0.000164368 0 0 0 0 0 0 0 0 0 0 0 0 0 0 0 0 0 64 0.002 
865 7 0.00950629 0.0708924 0.0329487 0 0 0 0.0334709 -0.0862271 -0.00619872 -0.000116607 -8.51748e-05 5.68874e-05 0 0 0 0 0 0 0 0 0 0 0 0 0 0 0 0 171 0.002 
2070 3 0.0132958 0.0722701 0.0328359 0 0 0 0.0358646 -0.0338904 -0.0651824 0 -0.000164368 0 0 0 0 0 0 0 0 0 0 0 0 0 0 0 0 0 40 0.002 
1532 3 0.0174234 0.0724232 0.0329981 0 0 0 -0.0827323 -0.197008 -0.00429887 0 -0.000164368 0 0 0 0 0 0 0 0 0 0 0 0 0 0 0 0 0 85 0.002 
1002 4 0.00299813 0.0734949 0.0329884 0 0 0 0.00036161 -0.0323112 -0.00416625 0.00123726 0.000447699 8.98559e-05 0 0 0 0 0 0 0 0 0 0 0 0 0 0 0 0 144 0.002 
1773 7 0.00696845 0.073983 0.0330025 0 0 0 0.00930467 -0.0925724 -0.019605 9.09521e-05 -0.000244432 4.20153e-05 0 0 0 0 0 0 1 0 0 0 0 0 0 0 0 0 76 0.002 
1766 3 0.00720384 0.0386557 0.0428523 0 0 0 0.0596705 14.0081 -11.7931 0 -0.000164368 0 0 0 0 0 0 0 0 0 0 0 0 0 0 0 0 0 106 0.002 
2163 2 0.0167981 0.0792376 -0.0088497 0 0 0 3.48692 7.32506 -14.7097 0 -0.000164368 0 0 0 0 0 0 0 0 0 0 0 0 0 0 0 0 0 10 0.002 
2068 13 0.00793956 0.0796675 -0.0324256 0 0 0 -0.00204176 1.29253 -0.060091 0 -0.000164368 0 0 0 0 0 0 0 0 0 0 0 0 0 0 0 0 0 50 0.002 
1480 5 0.0130933 0.0794283 -0.0326475 0 0 0 1.16268 0.674706 -0.0920204 0 -0.000164368 0 0 0 0 0 0 0 0 0 0 0 0 0 0 0 0 0 86 0.002 
704 3 0.00341847 0.0814362 -0.0324053 0 0 0 0.195265 0.629535 0.813908 0 -0.000164368 0 0 0 0 0 0 0 0 0 0 0 0 0 0 0 0 0 155 0.002 
796 1 0.0156337 0.0826975 -0.0323055 0 0 0 0.027917 -0.570046 0.295869 0 -0.000164368 0 0 0 0 0 0 0 0 0 0 0 0 0 0 0 0 0 167 0.002 
2064 6 0.00816703 0.0842773 -0.0330475 0 0 0 -0.18245 -0.328833 0.147401 -0.0444862 0.0537049 0.139727 0 0 0 0 0 0 0 0 0 0 0 0 0 0 0 0 32 0.002 
2108 9 0.00359576 0.0876729 -0.0323517 0 0 0 0.233101 0.0883203 0.648413 0 -0.000164368 0 0 0 0 0 0 0 0 0 0 0 0 0 0 0 0 0 62 0.002 
158 7 0.0119009 0.0883174 -0.0330247 0 0 0 0.104019 0.393108 0.14486 -0.0132113 -0.00832709 0.00753081 0 0 0 0 0 0 1 0 0 0 0 0 0 0 0 0 112 0.002 
2308 8 0.0082283 0.0910717 -0.032459 0 0 0 0.37543 0.0976975 0.737165 -0.0510593 -0.0245129 -0.002081 0 0 0 0 0 0 0 0 0 0 0 0 0 0 0 0 2 0.002 
2296 9 0.0155707 0.0899969 -0.0328764 0 0 0 0.652788 -0.0450888 -0.447542 0.00737874 -0.00336422 -0.000481332 0 0 0 0 0 0 0 0 1 0 0 0 0 0 0 0 8 0.002 
1445 3 0.00334309 0.09178 -0.032912 0 0 0 -0.0102442 0.391039 0.19225 -3.84938e-05 -0.000539994 -0.00101159 0 0 1 0 0 0 0 0 0 0 0 0 0 0 0 0 108 0.002 
1662 8 0.0117673 0.0927842 -0.0327916 0 0 0 0.247162 0.568707 -0.82733 0.0310067 0.00260073 0.0116088 0 0 0 0 0 0 0 1 0 0 0 0 0 0 0 0 73 0.002 
1958 12 0.0034227 0.0959028 -0.0328609 0 0 0 0.00699368 0.522496 0.249813 0.00589603 -0.0489446 0.0092032 0 0 0 0 0 0 0 0 0 0 0 1 0 0 0 0 77 0.002 
1056 1 0.0151898 0.0947886 -0.0325912 0 0 0 0.29673 0.395672 -0.205239 0.0200526 0.021419 -0.00952777 0 0 0 0 0 0 0 1 0 0 0 0 0 0 0 0 122 0.002 
520 1 0.00645605 0.0982941 -0.0315694 0 0 0 0.0894401 -0.182123 -0.0964665 -0.00467688 -0.00652716 -0.00445012 2 0 0 0 0 0 0 0 0 0 0 0 0 0 0 0 169 0.002 
476 2 0.0110796 0.0969551 -0.0329783 0 0 0 0.340524 -0.0144391 0.137785 -0.00626772 -0.0345857 0.00147123 0 1 0 0 0 0 0 0 0 0 0 0 0 0 0 0 192 0.002 
197 4 0.0030358 0.0998465 -0.0330061 0 0 0 0.142237 0.293687 -0.0533394 0.00653779 0.0179339 -0.0102121 0 0 0 2 0 0 0 0 0 0 0 1 0 0 0 0 142 0.002 
826 1 0.0113601 0.10091 -0.0329893 0 0 0 0.283023 0.0176547 -0.00688542 -0.00337488 -0.00186164 -0.00165374 1 1 0 0 0 0 0 0 0 0 0 0 0 0 0 0 136 0.002 
1680 3 0.0147731 0.0989132 -0.0327856 0 0 0 0.400879 0.00888856 0.00913282 -0.00743016 -0.00605279 0.00195251 1 0 1 0 0 0 0 0 0 0 0 0 0 0 0 0 120 0.002 
58 4 0.0187286 0.0989149 -0.0330007 0 0 0 0.36808 -0.177935 -0.00809446 0.0265833 0.0119599 -0.00248159 0 0 1 2 0 0 0 0 0 0 0 0 0 0 0 0 154 0.002 
1308 1 0.00650754 0.102081 -0.0329864 0 0 0 0.0640995 -0.0541164 -0.000530251 -0.00781585 -0.00782192 0.00134481 1 0 0 0 0 0 0 0 0 0 0 0 0 0 0 0 119 0.002 
1216 2 0.0168128 0.102419 -0.0329634 0 0 0 0.110964 -0.170611 0.0155037 0.00505382 -0.0031946 0.00145369 0 2 0 1 0 0 0 0 0 0 0 0 0 0 0 0 68 0.002 
529 6 0.00298059 0.103764 -0.0323056 0 0 0 0.0300822 0.10433 -0.0594221 -0.00552149 0.00211222 0.00716669 1 0 0 1 0 1 0 0 0 0 0 0 0 0 0 0 148 0.002 
241 1 0.00966281 0.104483 -0.0330027 0 0 0 0.122892 -0.137669 -0.0280357 -0.00399362 -0.00362257 0.000120888 1 0 0 0 0 0 0 0 0 0 0 0 0 0 0 0 207 0.002 
1495 4 0.0146873 0.10579 -0.0329112 0 0 0 0.0634315 -0.0407655 0.0345679 0.0012871 0.00106063 -0.00712646 0 1 0 1 0 0 0 0 0 0 0 0 0 0 0 0 106 0.002 
1417 4 0.00318634 0.107924 -0.0317887 0 0 0 0.0337073 -0.0391278 0.185601 0 -0.000164368 0 0 0 0 0 0 0 0 0 0 0 0 0 0 0 0 0 81 0.002 
214 4 0.00719457 0.107859 -0.0326684 0 0 0 0.0403067 -0.0904129 0.111859 0 -0.000164368 0 0 0 0 0 0 0 0 0 0 0 0 0 0 0 0 0 184 0.002 
210 9 0.0113929 0.108031 -0.0329323 0 0 0 0.0689862 -0.0414631 0.0656632 0.0013203 -0.00770638 3.75229e-05 1 0 0 1 0 0 0 0 0 0 0 0 0 0 0 0 103 0.002 
1973 9 0.0180871 0.107944 -0.0329804 0 0 0 -0.0145732 -0.0327965 0.00545726 0 -0.000164368 0 0 0 0 0 0 0 0 0 0 0 0 0 0 0 0 0 43 0.002 
121 8 0.0106787 0.0818714 -0.0302168 0 0 0 0.754098 0.874605 -0.0954076 0 -0.000164368 0 0 0 0 0 0 0 0 0 0 0 0 0 0 0 0 0 175 0.002 
1987 8 0.00365974 0.0845012 -0.0297346 0 0 0 0.555533 0.308939 1.39553 0 -0.000164368 0 0 0 0 0 0 0 0 0 0 0 0 0 0 0 0 0 53 0.002 
164 2 0.0127592 0.0853115 -0.0304815 0 0 0 1.10235 1.16475 0.102766 0 -0.000164368 0 0 0 0 0 0 0 0 0 0 0 0 0 0 0 0 0 53 0.002 
631 2 0.0130413 0.0902765 -0.0297779 0 0 0 0.645075 0.324449 0.130876 0.00466778 -0.00311078 0.0303498 0 1 0 0 0 0 1 0 0 0 0 0 0 0 0 0 189 0.002 
1049 6 0.00833138 0.0948104 -0.030982 0 0 0 0.762145 0.291045 1.00138 -0.000694078 0.000521818 -0.000556147 1 0 0 0 0 0 0 0 0 0 0 0 0 0 0 0 134 0.002 
429 8 0.0123846 0.0985191 -0.0295015 0 0 0 0.447176 0.171852 0.24242 0.00656432 -0.0325646 -0.0238171 0 0 0 0 0 0 0 1 0 0 0 0 0 0 0 0 91 0.002 
602 8 0.00875938 0.10079 -0.0294905 0 0 0 0.134722 -0.385923 0.24697 0.00248207 -0.00768956 0.00226013 1 0 0 0 0 0 0 1 0 0 0 0 0 0 0 0 202 0.002 
1654 7 0.00562801 0.105413 -0.0298084 0 0 0 0.0182833 -0.0314118 0.0489635 0.000391397 -0.00301131 -0.000889077 0 0 0 0 0 1 1 0 0 0 0 0 0 0 0 0 88 0.002 
1956 4 0.0133779 0.103212 -0.0301631 0 0 0 0.0124418 0.125267 -0.023697 0.00160716 -0.0100184 0.00880524 0 0 0 0 0 0 0 0 0 0 0 0 0 0 0 0 46 0.002 
937 2 0.0176454 0.10483 -0.0298516 0 0 0 0.026915 0.00122899 0.0373842 -0.000149974 -0.000158428 0.000101001 0 1 0 0 0 0 0 0 0 0 0 0 0 0 0 0 151 0.002 
1122 3 0.0151505 0.107917 -0.0292853 0 0 0 0.0121049 0.0314214 0.0324321 0 -0.000164368 0 0 0 0 0 0 0 0 0 0 0 0 0 0 0 0 0 113 0.002 
1896 2 0.0142774 0.0803058 -0.0287999 0 0 0 1.09786 0.444072 0.475193 0 -0.000164368 0 0 0 0 0 0 0 0 0 0 0 0 0 0 0 0 0 97 0.002 
1963 2 0.0178029 0.0833734 -0.028242 0 0 0 1.30738 -0.955405 0.010578 0 -0.000164368 0 0 0 0 0 0 0 0 0 0 0 0 0 0 0 0 0 76 0.002 
1194 8 0.00588188 0.0885396 -0.0275737 0 0 0 -0.743938 0.593548 0.513043 0 -0.000164368 0 0 0 0 0 0 0 0 0 0 0 0 0 0 0 0 0 156 0.002 
2012 4 0.0107519 0.0885933 -0.0269373 0 0 0 0.439967 2.16875 1.47579 0 -0.000164368 0 0 0 0 0 0 0 0 0 0 0 0 0 0 0 0 0 65 0.002 
778 3 0.0153619 0.0872727 -0.0281442 0 0 0 2.08788 0.933421 -0.357994 0 -0.000164368 0 0 0 0 0 0 0 0 0 0 0 0 0 0 0 0 0 138 0.002 
983 12 0.00327237 0.0913606 -0.0289365 0 0 0 0.199076 0.11239 0.147665 3.84938e-05 0.000211258 0.00101159 0 0 1 0 0 0 0 0 0 0 0 0 0 0 0 0 159 0.002 
1568 8 0.00786421 0.0920164 -0.028101 0 0 0 0.148633 0.471412 1.36167 0 -0.000164368 0 0 0 0 0 0 0 0 0 0 0 0 0 0 0 0 0 109 0.002 
1943 1 0.0157559 0.0929844 -0.0287046 0 0 0 0.877298 0.137928 -0.171796 0.0047234 0.012695 0.00345813 1 1 0 0 0 0 0 0 0 0 0 0 0 0 0 0 60 0.002 
2119 1 0.00299511 0.0967846 -0.0288886 0 0 0 -0.00454226 0.251594 -0.0844352 0.00572088 0.000929958 0.00264284 0 0 0 0 0 0 0 0 0 0 0 0 0 0 0 0 51 0.002 
1176 4 0.0160723 0.0969515 -0.0285113 0 0 0 0.126809 0.363292 -0.255151 -0.0093842 -0.00303981 -0.0117379 1 0 0 1 0 0 0 0 0 0 0 0 0 0 0 0 158 0.002 
1913 2 0.00386855 0.100688 -0.0291914 0 0 0 0.0782708 0.177322 0.0827923 -0.000322269 -0.00219832 -0.00441784 0 1 0 1 0 0 0 0 0 0 0 0 0 0 0 0 54 0.002 
1166 7 0.0161569 0.101009 -0.0281048 0 0 0 -0.143714 0.180532 0.345317 0 -0.000164368 0 0 0 0 0 0 0 0 0 0 0 0 0 0 0 0 0 161 0.002 
804 4 0.00299444 0.10388 -0.0269613 0 0 0 -0.0471839 0.0575012 0.234978 0.0082395 0.00213505 -0.00384015 0 1 0 2 0 0 0 0 0 0 0 0 0 0 0 0 122 0.002 
168 2 0.0100199 0.104274 -0.0280465 0 0 0 -0.0705171 -0.12929 0.189834 -0.00512523 0.00278089 -0.00643893 0 2 0 0 0 0 0 1 0 0 0 0 0 0 0 0 118 0.002 
962 1 0.00732488 0.108008 -0.0272959 0 0 0 0.101966 -0.0409671 0.0610438 -0.00599345 -0.00123029 -0.00165812 0 0 0 0 0 0 1 0 0 0 0 0 0 0 0 0 149 0.002 
1418 5 0.011239 0.108025 -0.0282728 0 0 0 0.0242828 -0.0661535 0.0823 -0.00366387 0.00191192 -0.00815533 0 1 0 0 0 0 0 0 0 0 0 0 0 0 0 0 109 0.002 
2067 1 0.0179825 0.0876024 -0.0250642 0 0 0 1.39772 -0.656899 0.634803 0 -0.000164368 0 0 0 0 0 0 0 0 0 0 0 0 0 0 0 0 0 54 0.002 
734 1 0.0035564 0.0956192 -0.0250901 0 0 0 0.264518 0.46256 -0.0285587 0 -0.000164368 0 0 0 0 0 0 0 0 0 0 0 0 0 0 0 0 0 135 0.002 
1885 9 0.00780446 0.095708 -0.0244071 0 0 0 0.298015 -0.00257351 0.502625 0 -0.000164368 0 0 0 0 0 0 0 0 0 0 0 0 0 0 0 0 0 97 0.002 
2080 4 0.014029 0.0952856 -0.0246429 0 0 0 0.271495 0.209466 0.220918 0 -0.000164368 0 0 0 0 0 0 0 0 0 0 0 0 0 0 0 0 0 64 0.002 
1570 7 0.0110097 0.0976745 -0.0258217 0 0 0 0.12267 -0.0853372 0.288835 -0.000975087 -0.0102058 0.00737501 0 0 0 0 0 0 1 0 0 0 0 0 0 0 0 0 113 0.002 
447 9 0.0186304 0.0984012 -0.025838 0 0 0 0.00818452 0.277519 0.0617574 6.9795e-05 -0.005157 -0.00158768 0 0 0 1 0 0 0 0 2 0 0 0 0 0 0 0 197 0.002 
930 3 0.00310975 0.0999163 -0.024565 0 0 0 0.0303636 0.175448 0.247408 0 -0.000164368 0 0 0 0 0 0 0 0 0 0 0 0 0 0 0 0 0 156 0.002 
1582 8 0.00687378 0.0994749 -0.0260923 0 0 0 0.0692985 0.349093 0.0720731 0 -0.000164368 0 0 0 0 0 0 0 0 0 0 0 0 0 0 0 0 0 104 0.002 
2216 2 0.012315 0.101331 -0.0267054 0 0 0 0.00310927 0.00440735 0.270391 0.00398377 0.00466763 0.0139178 0 1 0 0 0 0 1 1 0 0 0 0 0 0 0 0 10 0.002 
2303 1 0.0186545 0.102989 -0.0255603 0 0 0 -0.0288852 -0.0292005 -0.00865221 0.00543189 -0.0050396 -0.00802875 2 0 0 0 0 0 0 0 0 0 0 0 0 0 0 0 8 0.002 
606 1 0.00676645 0.104363 -0.0257469 0 0 0 -0.00820502 0.137531 0.1373 0.00191685 0.00385788 -0.00227507 2 1 0 1 0 0 0 0 0 0 0 0 0 0 0 0 170 0.002 
2229 3 0.0151895 0.104802 -0.0266952 0 0 0 0.0273204 0.00801262 0.0528523 0.00026571 -0.000556025 -0.000135764 0 1 0 0 0 0 0 0 0 0 0 0 0 0 0 0 16 0.002 
795 6 0.0103127 0.10633 -0.0246139 0 0 0 0.110735 -0.00509195 0.249894 0 -0.000164368 0 0 0 0 0 0 0 0 0 0 0 0 0 0 0 0 0 107 0.002 
1665 2 0.00300607 0.107878 -0.0268395 0 0 0 0.000165105 0.143452 0.107944 -0.0001305 -0.00131303 -0.000484662 0 0 0 1 0 0 0 0 0 0 0 0 0 0 0 0 98 0.002 
1592 3 0.0139886 0.108001 -0.0246216 0 0 0 0.103938 0.00425805 0.133034 8.13549e-05 -0.000936855 -0.000509768 0 0 0 0 0 0 0 0 0 0 0 0 0 0 0 0 130 0.002 
852 7 0.00671219 0.0903609 -0.023757 0 0 0 0.833241 0.150202 1.03489 0 -0.000164368 0 0 0 0 0 0 0 0 0 0 0 0 0 0 0 0 0 157 0.002 
1927 1 0.0179422 0.0950451 -0.0237216 0 0 0 0.140187 0.347142 -0.0433897 -0.00267673 -0.00190721 0.00676027 1 0 0 0 0 0 0 0 0 0 0 0 0 0 0 0 70 0.002 
1666 9 0.0110724 0.100768 -0.0229531 0 0 0 -0.0359406 0.0658487 0.175071 0.00071749 -0.00298039 0.00723878 0 1 0 0 0 0 0 0 0 0 0 0 0 0 0 0 110 0.002 
1557 3 0.0156509 0.10059 -0.024015 0 0 0 0.085971 0.251686 0.0818643 0 -0.000164368 0 0 0 0 0 0 0 0 0 0 0 0 0 0 0 0 0 96 0.002 
1264 2 0.00674495 0.101877 -0.0226441 0 0 0 0.0355792 0.323022 0.243699 -0.000742729 -0.0074546 0.015608 1 0 0 0 0 0 0 0 0 0 0 0 0 0 0 0 145 0.002 
948 4 0.00303521 0.103441 -0.0225248 0 0 0 0.0573 0.21846 0.16292 0 -0.000164368 0 0 0 0 0 0 0 0 0 0 0 0 0 0 0 0 0 159 0.002 
807 8 0.0136228 0.104188 -0.0229996 0 0 0 -0.153064 0.322587 0.0113735 -0.0142086 -0.00414138 -0.0113049 0 0 0 0 0 0 0 1 0 0 0 0 0 0 0 0 193 0.002 
793 2 0.00557016 0.107533 -0.0236252 0 0 0 0.0425237 0.111133 0.177515 0.00211773 -0.00130087 -0.00232127 1 1 0 0 0 0 0 0 0 0 0 0 0 0 0 0 155 0.002 
786 6 0.0173165 0.106091 -0.0234484 0 0 0 -0.0600029 0.0748406 -0.202196 -0.00386517 0.00604106 0.00915659 1 0 0 0 0 0 0 0 0 0 0 0 0 0 0 0 160 0.002 
1982 2 0.0172857 0.0764683 -0.0278671 0 0 0 -1.43408 -0.606627 -13.4627 0 -0.000164368 0 0 0 0 0 0 0 0 0 0 0 0 0 0 0 0 0 79 0.002 
1933 2 0.00939835 0.0939249 -0.0209291 0 0 0 0.185207 0.0145937 0.0330035 0 -0.000164368 0 0 0 0 0 0 0 0 0 0 0 0 0 0 0 0 0 67 0.002 
295 1 0.0161799 0.0942574 -0.0202349 0 0 0 0.0259888 -0.045809 0.162688 0.00393044 0.000224362 -0.00325624 0 0 0 0 0 0 0 0 0 0 0 0 0 0 0 0 121 0.002 
415 7 0.00343854 0.0973301 -0.0213778 0 0 0 -0.305209 0.0434146 0.233425 0 -0.000164368 0 0 0 0 0 0 0 0 0 0 0 0 0 0 0 0 0 207 0.002 