ITEM: TIMESTEP
18900000
ITEM: NUMBER OF ATOMS
2285
ITEM: BOX BOUNDS ff ff ff
-0.01 0.45
-0.15 0.15
-0.08 0.1
ITEM: ATOMS id type x y z ix iy iz vx vy vz fx fy fz c_cc_1 c_cc_2 c_cc_3 c_cc_4 c_cc_5 c_cc_6 c_cc_7 c_cc_8 c_cc_9 c_cc_10 c_cc_11 c_cc_12 c_cc_13 c_cc_14 c_cc_15 c_cc_16 f_fppacc radius 
1868 10 0.00616197 -0.0524025 -0.00558018 0 0 0 -14.9152 3.56535 52.1017 0 -0.000164368 0 0 0 0 0 0 0 0 0 0 0 0 0 0 0 0 0 57 0.002 
1714 4 0.00447585 -0.0400833 -0.0245517 0 0 0 -0.537329 -2.38209 3.60964 0 -0.000164368 0 0 0 0 0 0 0 0 0 0 0 0 0 0 0 0 0 72 0.002 
1873 4 0.00558586 -0.0206442 -0.0398986 0 0 0 -8.54574 -13.1194 29.7437 0 -0.000164368 0 0 0 0 0 0 0 0 0 0 0 0 0 0 0 0 0 37 0.002 
1391 1 0.0102751 -0.0374953 -0.0425912 0 0 0 -0.337364 -10.367 10.4276 0 -0.000164368 0 0 0 0 0 0 0 0 0 0 0 0 0 0 0 0 0 107 0.002 
1698 1 0.00738418 -0.028237 -0.0479266 0 0 0 0.487262 -6.98513 3.38211 0 -0.000164368 0 0 0 0 0 0 0 0 0 0 0 0 0 0 0 0 0 97 0.002 
904 8 0.00936268 -0.0041635 -0.0549069 0 0 0 1.42447 -30.1268 2.67114 0 -0.000164368 0 0 0 0 0 0 0 0 0 0 0 0 0 0 0 0 0 190 0.002 
1657 8 0.00300258 -0.019514 0.0544867 0 0 0 -5.04404 29.1372 12.62 0.246983 0.126915 -0.289086 0 0 0 0 0 0 0 0 0 0 0 0 0 0 0 0 11 0.002 
1850 6 0.00368673 0.0333584 0.000597119 0 0 0 3.39127 -3.40748 8.39065 0 -0.000164368 0 0 0 0 0 0 0 0 0 0 0 0 0 0 0 0 0 85 0.002 
1980 13 0.0157373 0.0226572 -0.0382663 0 0 0 1.00001 -2.24409 -0.707506 0 -0.000164368 0 0 0 0 0 0 0 0 0 0 0 0 0 0 0 0 0 34 0.002 
2351 11 0.00762965 0.0355727 -0.029511 0 0 0 0.859504 -3.48285 0.111517 0 -0.000164368 0 0 0 0 0 0 0 0 0 0 0 0 0 0 0 0 0 0 0.002 
1917 3 0.00481495 0.0218726 0.0536437 0 0 0 -10.3233 45.7735 -15.8547 0.417076 -0.280454 -0.817937 0 0 0 0 0 0 0 0 0 0 0 0 0 0 0 0 52 0.002 
665 4 0.0179948 0.0513015 -0.0355039 0 0 0 6.13007e-16 6.8446e-16 6.51544e-14 0 -1.11022e-16 0 0 0 0 2 0 0 0 0 0 0 0 0 0 0 0 0 280 0.002 
393 1 0.013745 0.0541007 -0.0355 0 0 0 5.76275e-29 2.43269e-19 6.72703e-12 -1.3106e-28 0 0 0 0 0 0 0 0 0 0 0 0 0 0 0 0 0 0 1 0.002 
1145 2 0.0126118 0.0650927 -0.0355 0 0 0 -2.46971e-116 -1.42188e-19 -3.93784e-12 1.18952e-116 -1.35525e-20 0 0 0 0 0 0 0 0 0 0 0 0 0 0 0 0 0 4 0.002 
465 6 0.0169561 0.0642925 -0.0355038 0 0 0 4.52678e-10 -1.66908e-09 3.36596e-12 2.58535e-10 -9.53164e-10 0 0 0 0 0 0 1 0 0 0 0 0 0 0 0 0 0 25 0.002 
2075 1 0.00803972 0.0569992 -0.032491 0 0 0 0.0838516 -2.29193 0.223253 0 -0.000164368 0 0 0 0 0 0 0 0 0 0 0 0 0 0 0 0 0 43 0.002 
466 4 0.0103324 0.06302 -0.0316697 0 0 0 0.664405 -1.67641 0.251595 0 -0.000164368 0 0 0 0 0 0 0 0 0 0 0 0 0 0 0 0 0 143 0.002 
857 11 0.0145843 0.065924 -0.031436 0 0 0 -0.583732 -0.637352 0.606826 0 -0.000164368 0 0 0 0 0 0 0 0 0 0 0 0 0 0 0 0 0 165 0.002 
1080 3 0.00305303 0.0690544 -0.0327776 0 0 0 0.0619748 -1.10834 0.148036 0 -0.000164368 0 0 0 0 0 0 0 0 0 0 0 0 0 0 0 0 0 173 0.002 
1551 2 0.0118162 0.0721397 -0.0316477 0 0 0 0.965839 -1.76495 0.563633 0 -0.000164368 0 0 0 0 0 0 0 0 0 0 0 0 0 0 0 0 0 81 0.002 
2347 6 0.0179175 0.0444259 -0.0296832 0 0 0 0.817578 -1.99239 0.292647 0 -0.000164368 0 0 0 0 0 0 0 0 0 0 0 0 0 0 0 0 0 1 0.002 
1292 4 0.0161246 0.0506511 -0.0295438 0 0 0 0.63914 -1.40598 0.518481 0 -0.000164368 0 0 0 0 0 0 0 0 0 0 0 0 0 0 0 0 0 152 0.002 
1625 3 0.00305268 0.0628457 -0.0297709 0 0 0 0.0259033 -1.18095 0.400352 0 -0.000164368 0 0 0 0 0 0 0 0 0 0 0 0 0 0 0 0 0 98 0.002 
1772 5 0.0167344 0.0698204 -0.0294214 0 0 0 1.04859 -0.532744 1.25557 0 -0.000164368 0 0 0 0 0 0 0 0 0 0 0 0 0 0 0 0 0 91 0.002 
1819 2 0.00490005 0.069526 -0.028891 0 0 0 0.137079 -2.23574 0.814347 0 -0.000164368 0 0 0 0 0 0 0 0 0 0 0 0 0 0 0 0 0 59 0.002 
2091 4 0.017229 0.0664083 -0.0263431 0 0 0 -0.754188 -0.230426 1.88428 0 -0.000164368 0 0 0 0 0 0 0 0 0 0 0 0 0 0 0 0 0 53 0.002 
1347 3 0.00731846 0.0662901 -0.0213336 0 0 0 0.552775 -1.08698 1.07637 0 -0.000164368 0 0 0 0 0 0 0 0 0 0 0 0 0 0 0 0 0 146 0.002 
288 6 0.0165611 0.0657927 -0.0198975 0 0 0 0.505916 -1.48993 0.921037 0 -0.000164368 0 0 0 0 0 0 0 0 0 0 0 0 0 0 0 0 0 184 0.002 
1287 9 0.0148787 0.0494933 -0.01842 0 0 0 0.0946792 -2.35117 0.745454 0 -0.000164368 0 0 0 0 0 0 0 0 0 0 0 0 0 0 0 0 0 154 0.002 
598 6 0.015587 0.0737844 -0.00850771 0 0 0 0.884704 0.0278579 -0.0592275 0 -0.000164368 0 0 0 0 0 0 0 0 0 0 0 0 0 0 0 0 0 182 0.002 
697 4 0.0129251 0.0669929 -0.00722344 0 0 0 0.124941 -0.661321 -0.733006 0 -0.000164368 0 0 0 0 0 0 0 0 0 0 0 0 0 0 0 0 0 132 0.002 
965 2 0.00950099 0.0747805 -0.014723 0 0 0 1.70312 14.4995 -25.481 0 -0.000164368 0 0 0 0 0 0 0 0 0 0 0 0 0 0 0 0 0 152 0.002 
1955 2 0.0101409 0.0745142 -0.00394601 0 0 0 0.696535 -0.48341 -0.893478 0 -0.000164368 0 0 0 0 0 0 0 0 0 0 0 0 0 0 0 0 0 56 0.002 
1637 7 0.0146678 0.0647317 -0.00151415 0 0 0 -0.0248291 -0.207171 -1.26318 0 -0.000164368 0 0 0 0 0 0 0 0 0 0 0 0 0 0 0 0 0 116 0.002 
2070 3 0.00547684 0.072913 0.000655997 0 0 0 0.454179 0.276918 -1.34574 0 -0.000164368 0 0 0 0 0 0 0 0 0 0 0 0 0 0 0 0 0 43 0.002 
1808 5 0.00883179 0.0523992 0.00507556 0 0 0 0.30832 -0.879843 1.091 0 -0.000164368 0 0 0 0 0 0 0 0 0 0 0 0 0 0 0 0 0 55 0.002 
2018 8 0.0062278 0.0748136 0.0046563 0 0 0 -0.116101 -0.19798 -0.819029 0 -0.000164368 0 0 0 0 0 0 0 0 0 0 0 0 0 0 0 0 0 65 0.002 
1609 14 0.00525032 0.0694189 0.00687162 0 0 0 0.483797 -0.686424 -0.85884 0 -0.000164368 0 0 0 0 0 0 0 0 0 0 0 0 0 0 0 0 0 153 0.002 
1829 2 0.0117928 0.069508 0.00740537 0 0 0 -0.0958269 -0.140251 -0.799796 0 -0.000164368 0 0 0 0 0 0 0 0 0 0 0 0 0 0 0 0 0 73 0.002 
1763 2 0.00389005 0.07432 -0.0298629 0 0 0 -0.440105 -1.66075 0.599719 0 -0.000164368 0 0 0 0 0 0 0 0 0 0 0 0 0 0 0 0 0 70 0.002 
178 7 0.0169795 0.0693489 0.0132147 0 0 0 0.308739 0.0523924 -0.6832 0 -0.000164368 0 0 0 0 0 0 0 0 0 0 0 0 0 0 0 0 0 191 0.002 
2158 8 0.0114977 0.0744612 0.0131247 0 0 0 0.101925 0.513793 -0.636519 0 -0.000164368 0 0 0 0 0 0 0 0 0 0 0 0 0 0 0 0 0 35 0.002 
2076 1 0.0180171 0.0629546 0.0158075 0 0 0 0.2108 -0.192937 -0.541594 0 -0.000164368 0 0 0 0 0 0 0 0 0 0 0 0 0 0 0 0 0 68 0.002 
1157 1 0.0142108 0.0684773 0.0163545 0 0 0 0.297879 0.0268339 -0.56525 0 -0.000164368 0 0 0 0 0 0 0 0 0 0 0 0 0 0 0 0 0 72 0.002 
2194 3 0.00304599 0.0739635 0.0162823 0 0 0 0.00950276 -0.182349 -0.151859 0 -0.000164368 0 0 0 0 0 0 0 0 0 0 0 0 0 0 0 0 0 36 0.002 
2133 7 0.0172105 0.0627432 0.0210047 0 0 0 0.198225 -0.611081 -0.290283 0 -0.000164368 0 0 0 0 0 0 0 0 0 0 0 0 0 0 0 0 0 44 0.002 
1481 1 0.00697305 0.0693957 0.0195318 0 0 0 -0.113999 -0.145719 -0.275697 0 -0.000164368 0 0 0 0 0 0 0 0 0 0 0 0 0 0 0 0 0 148 0.002 
1683 4 0.00315383 0.0718876 0.0197003 0 0 0 0.0203788 -0.134318 -0.12303 0 -0.000164368 0 0 0 0 0 0 0 0 0 0 0 0 0 0 0 0 0 145 0.002 
927 2 0.00667237 0.0733086 0.0210479 0 0 0 0.00607064 -0.140228 -0.0529763 0 -0.000164368 0 0 0 0 0 0 0 0 0 0 0 0 0 0 0 0 0 202 0.002 
1912 1 0.00544159 0.0656681 0.0217063 0 0 0 0.0667424 -0.116977 -0.228784 0 -0.000164368 0 0 0 0 0 0 0 0 0 0 0 0 0 0 0 0 0 84 0.002 
1667 1 0.00303536 0.0692827 0.0231313 0 0 0 -0.00757776 -0.130661 -0.0728789 0 -0.000164368 0 0 0 0 0 0 0 0 0 0 0 0 0 0 0 0 0 80 0.002 
1728 4 0.0178963 0.0696138 0.021449 0 0 0 -0.155478 -0.195093 -0.027273 0 -0.000164368 0 0 0 0 0 0 0 0 0 0 0 0 0 0 0 0 0 109 0.002 
816 10 0.00966191 0.0714944 0.0233461 0 0 0 -0.0939575 -0.253957 0.104751 0 -0.000164368 0 0 0 0 0 0 0 0 0 0 0 0 0 0 0 0 0 215 0.002 
917 8 0.0138973 0.0732987 0.021234 0 0 0 0.0423668 -0.247986 -0.107502 0 -0.000164368 0 0 0 0 0 0 0 0 0 0 0 0 0 0 0 0 0 205 0.002 
80 1 0.00393947 0.0413358 0.0405038 0 0 0 0.999155 11.9021 -14.6822 -0.0392246 -0.157681 -0.175184 0 0 0 0 0 0 0 0 0 0 0 0 0 0 0 0 84 0.002 
2101 3 0.00453351 0.0630657 0.0249867 0 0 0 0.125846 -0.197497 -0.206668 0 -0.000164368 0 0 0 0 0 0 0 0 0 0 0 0 0 0 0 0 0 53 0.002 
1951 1 0.013447 0.0629939 0.024587 0 0 0 -0.0683693 -0.153229 -0.384754 0 -0.000164368 0 0 0 0 0 0 0 0 0 0 0 0 0 0 0 0 0 89 0.002 
2126 3 0.00622463 0.0702037 0.0256043 0 0 0 -0.0196643 -0.15139 -0.0997382 0 -0.000164368 0 0 0 0 0 0 0 0 0 0 0 0 0 0 0 0 0 54 0.002 
519 4 0.0147096 0.0704741 0.0253951 0 0 0 0.000866207 -0.273486 0.0112267 0 -0.000164368 0 0 0 0 0 0 0 0 0 0 0 0 0 0 0 0 0 131 0.002 
1541 1 0.00331087 0.0731457 0.0254746 0 0 0 -0.0252954 -0.119355 0.00503242 0 -0.000164368 0 0 0 0 0 0 0 0 0 0 0 0 0 0 0 0 0 122 0.002 
1782 11 0.0126926 0.0741598 0.0255923 0 0 0 -0.0696056 -0.211058 -0.0404105 0 -0.000164368 0 0 0 0 0 0 0 0 0 0 0 0 0 0 0 0 0 102 0.002 
273 2 0.0123204 0.0591253 0.0274836 0 0 0 0.0269089 -0.211257 -0.301432 0 -0.000164368 0 0 0 0 0 0 0 0 0 0 0 0 0 0 0 0 0 135 0.002 
157 4 0.00350909 0.0670965 0.0267815 0 0 0 -0.00116227 -0.178627 -0.0608847 0 -0.000164368 0 0 0 0 0 0 0 0 0 0 0 0 0 0 0 0 0 73 0.002 
1513 3 0.01046 0.069139 0.0265349 0 0 0 -0.00724891 -0.321195 0.055715 0 -0.000164368 0 0 0 0 0 0 0 0 0 0 0 0 0 0 0 0 0 112 0.002 
1721 2 0.0088325 0.0738197 0.0266134 0 0 0 -0.072565 -0.196165 0.000415263 0 -0.000164368 0 0 0 0 0 0 0 0 0 0 0 0 0 0 0 0 0 92 0.002 
2228 13 0.016469 0.0739046 0.0269318 0 0 0 -0.0980641 -0.149332 0.133348 0 -0.000164368 0 0 0 0 0 0 0 0 0 0 0 0 0 0 0 0 0 33 0.002 
2161 6 0.003105 0.061715 0.0148693 0 0 0 6.7575 13.8167 -25.0034 0 -0.000164368 0 0 0 0 0 0 0 0 0 0 0 0 0 0 0 0 0 58 0.002 
2271 5 0.00666787 0.0584908 0.0296571 0 0 0 2.03093 1.53176 -1.18006 0 -0.000164368 0 0 0 0 0 0 0 0 0 0 0 0 0 0 0 0 0 1 0.002 
684 11 0.0181014 0.0615992 0.0294246 0 0 0 -0.181641 -0.384895 0.147777 0 -0.000164368 0 0 0 0 0 0 0 0 0 0 0 0 0 0 0 0 0 183 0.002 
1618 1 0.0111128 0.0647746 0.0298137 0 0 0 0.0486522 -0.171574 -0.13938 0 -0.000164368 0 0 0 0 0 0 0 0 0 0 0 0 0 0 0 0 0 90 0.002 
517 2 0.00752188 0.0671576 0.0284063 0 0 0 0.612413 2.39317 -1.21053 -0.0670195 -0.0605092 -0.0542956 0 2 0 0 0 0 0 0 0 0 0 0 0 0 0 0 203 0.002 
1284 3 0.0164976 0.0692237 0.0287627 0 0 0 0.0835697 -0.154153 0.0305371 0 -0.000164368 0 0 0 0 0 0 0 0 0 0 0 0 0 0 0 0 0 172 0.002 
1805 4 0.00300915 0.0707222 0.0289031 0 0 0 0.00284292 -0.176071 0.0382955 0 -0.000164368 0 0 0 0 0 0 0 0 0 0 0 0 0 0 0 0 0 102 0.002 
2111 2 0.00663685 0.0722648 0.0295853 0 0 0 0.0146904 -0.207903 0.0774812 0 -0.000164368 0 0 0 0 0 0 0 0 0 0 0 0 0 0 0 0 0 47 0.002 
2196 9 0.0126054 0.0718671 0.0294076 0 0 0 -0.120815 -0.159408 0.0456445 0 -0.000164368 0 0 0 0 0 0 0 0 0 0 0 0 0 0 0 0 0 53 0.002 
1487 2 0.00313473 0.0746728 0.0296114 0 0 0 0.0138284 -0.160065 0.0275451 0 -0.000164368 0 0 0 0 0 0 0 0 0 0 0 0 0 0 0 0 0 119 0.002 
1020 2 0.00861274 0.0439721 0.0327908 0 0 0 0.0533895 -1.13839 2.27455 0 -0.000164368 0 0 0 0 0 0 0 0 0 0 0 0 0 0 0 0 0 97 0.002 
998 6 0.00666501 0.0638154 0.0301954 0 0 0 -0.339655 1.23181 0.329048 0.00771622 -0.0812546 -0.00866834 0 1 0 0 0 1 0 0 0 0 0 0 0 0 0 0 153 0.002 
1773 7 0.011383 0.061204 0.0318628 0 0 0 0.320826 -0.174852 -0.0182364 0 -0.000164368 0 0 0 0 0 0 0 0 0 0 0 0 0 0 0 0 0 78 0.002 
1002 4 0.00314008 0.0639668 0.0320146 0 0 0 -0.149514 -0.0539621 0.0128515 -0.0421237 0.0265227 0.0252255 0 0 0 0 0 1 0 0 0 0 0 0 0 0 0 0 147 0.002 
2063 1 0.0148416 0.0659414 0.0308958 0 0 0 0.0659076 -0.233363 -0.0735892 0 -0.000164368 0 0 0 0 0 0 0 0 0 0 0 0 0 0 0 0 0 39 0.002 
1535 4 0.0103128 0.0687734 0.0306244 0 0 0 0.531259 0.471316 0.269498 0.101427 0.114584 0.0377384 0 1 0 0 0 0 0 0 0 0 0 0 0 0 0 0 147 0.002 
600 6 0.0163703 0.0727587 0.0307746 0 0 0 -0.102738 -0.156973 0.131494 0 -0.000164368 0 0 0 0 0 0 0 0 0 0 0 0 0 0 0 0 0 225 0.002 
1268 3 0.00698589 0.0677849 0.032922 0 0 0 0.00250781 -0.196988 -0.0188218 -2.19125e-05 -0.000162737 -1.0702e-05 0 0 1 0 0 0 0 0 0 0 0 0 0 0 0 0 82 0.002 
233 7 0.0183268 0.0664034 0.0329598 0 0 0 0.031657 -0.252196 0.00909404 0 -0.000164368 0 0 0 0 0 0 0 0 0 0 0 0 0 0 0 0 0 111 0.002 
380 4 0.0030006 0.0681246 0.0329632 0 0 0 0.00344129 -0.165194 0.0116622 2.19125e-05 -0.000166 1.0702e-05 0 0 1 0 0 0 0 0 0 0 0 0 0 0 0 0 144 0.002 
1059 2 0.0139036 0.0694651 0.0328289 0 0 0 0.0822283 -0.231068 -0.0147845 0 -0.000164368 0 0 0 0 0 0 0 0 0 0 0 0 0 0 0 0 0 141 0.002 
1929 3 0.00315095 0.0721325 0.032894 0 0 0 0.012737 -0.17739 0.0300428 0 -0.000164368 0 0 0 0 0 0 0 0 0 0 0 0 0 0 0 0 0 42 0.002 
1462 2 0.00883801 0.0717049 0.032981 0 0 0 -0.0265652 -0.143171 -0.00220845 0 -0.000164368 0 0 0 0 0 0 0 0 0 0 0 0 0 0 0 0 0 84 0.002 
1387 4 0.0062907 0.0748367 0.0328854 0 0 0 -0.00557501 -0.110687 0.0318515 0 -0.000164368 0 0 0 0 0 0 0 0 0 0 0 0 0 0 0 0 0 142 0.002 
300 1 0.0120735 0.0741418 0.0329904 0 0 0 -0.0257258 -0.15508 -0.00777616 0 -0.000164368 0 0 0 0 0 0 0 0 0 0 0 0 0 0 0 0 0 160 0.002 
1053 1 0.0187444 0.070388 0.0329545 0 0 0 -0.0142611 -0.228537 -0.0290548 0 -0.000164368 0 0 0 0 0 0 0 0 0 0 0 0 0 0 0 0 0 145 0.002 
899 1 0.00897543 0.0831123 -0.0328411 0 0 0 0.0199561 -0.373888 0.202618 0 -0.000164368 0 0 0 0 0 0 0 0 0 0 0 0 0 0 0 0 0 170 0.002 
1681 3 0.00383803 0.0855599 -0.0326949 0 0 0 0.128285 0.0371867 0.143328 0.00144215 0.00178063 -0.000124046 0 0 1 0 0 0 0 0 0 0 0 0 0 0 0 0 98 0.002 
814 6 0.00616231 0.0888051 -0.0329402 0 0 0 0.0820269 0.189646 -0.143605 -0.00144215 -0.00210937 0.000124046 0 0 1 0 0 0 0 0 0 0 0 0 0 0 0 0 198 0.002 
1471 6 0.0156746 0.0879898 -0.0324272 0 0 0 0.585771 0.0676613 0.22012 0 -0.000164368 0 0 0 0 0 0 0 0 0 0 0 0 0 0 0 0 0 137 0.002 
2112 2 0.00299066 0.0912673 -0.0329927 0 0 0 -0.067363 -0.0352603 -0.0110842 0.020814 -0.00531203 -0.00904474 0 0 0 0 0 0 0 0 0 0 0 0 0 0 0 0 61 0.002 
1082 4 0.0113832 0.0894299 -0.0329114 0 0 0 0.397517 0.121597 -0.2303 0.000285988 0.00112782 0.00357653 0 0 0 1 0 0 0 0 0 0 0 0 0 0 0 0 150 0.002 
704 3 0.00702459 0.0930153 -0.0329959 0 0 0 -0.348558 0.0376782 0.0205963 0 -0.000164368 0 0 0 0 0 0 0 0 0 0 0 0 0 0 0 0 0 159 0.002 
2318 7 0.00393334 0.0952864 -0.031859 0 0 0 -0.262592 0.113678 -0.041333 0.00146762 -0.00249205 -0.0108281 0 0 0 0 0 0 2 0 0 0 0 0 0 0 0 0 6 0.002 
1335 15 0.0164797 0.0958206 -0.033008 0 0 0 0.355703 0.153792 -0.064004 -0.00426724 -0.00151198 0.0197915 0 0 0 0 0 0 0 0 0 0 0 0 0 0 2 0 168 0.002 
1901 1 0.00783773 0.0969345 -0.0329951 0 0 0 -0.0942031 0.0644966 0.0426278 0.000573055 0.000955096 0.000428104 0 0 0 0 0 0 0 0 0 0 0 0 0 0 0 0 73 0.002 
796 1 0.0127606 0.0976471 -0.0328568 0 0 0 0.105257 -0.0836594 0.0667882 0 -0.000164368 0 0 0 0 0 0 0 0 0 0 0 0 0 0 0 0 0 172 0.002 
1445 3 0.00300645 0.0990043 -0.0329821 0 0 0 -0.1098 0.249014 0.0134968 -8.65535e-05 8.67536e-05 -0.000243846 0 0 0 0 0 0 1 0 0 0 0 0 0 0 0 0 114 0.002 
520 1 0.00968664 0.100478 -0.032955 0 0 0 0.165053 0.00541687 -0.0393038 -0.000589139 -0.00308784 -0.00127615 0 0 0 0 0 0 0 0 0 0 0 0 0 0 0 0 174 0.002 
1958 12 0.00587514 0.10181 -0.0329161 0 0 0 0.0898926 0.0467447 0.000850532 0 -0.000164368 0 0 0 0 0 0 0 0 0 0 0 0 0 0 0 0 0 83 0.002 
1680 3 0.013547 0.101939 -0.032999 0 0 0 0.125843 0.0976861 0.0134552 0 -0.000164368 0 0 0 0 0 0 0 0 0 0 0 0 0 0 0 0 0 126 0.002 
529 6 0.00308305 0.104687 -0.0329785 0 0 0 0.0359033 -0.026331 -0.0307993 0 -0.000164368 0 0 0 0 0 0 0 0 0 0 0 0 0 0 0 0 0 154 0.002 
241 1 0.0101772 0.10444 -0.0329983 0 0 0 0.125726 0.0641964 -0.0453248 -0.00107893 -0.00303642 -0.00276723 1 0 0 0 0 0 0 0 0 0 0 0 0 0 0 0 212 0.002 
58 4 0.0174568 0.103936 -0.0329728 0 0 0 0.0486758 -0.012675 0.0451263 -0.000219605 -0.000104336 -1.30476e-05 0 0 0 1 0 0 0 0 0 0 0 0 0 0 0 0 162 0.002 
1216 2 0.0139134 0.105933 -0.032981 0 0 0 0.0461661 0.108511 -0.0356352 -2.62899e-05 -0.000262944 -6.36872e-05 0 1 0 0 0 0 0 0 0 0 0 0 0 0 0 0 77 0.002 
214 4 0.00619596 0.107829 -0.0330011 0 0 0 0.00215783 -0.0745462 -0.00949312 -0.000543935 4.65645e-05 0.0011668 0 0 0 0 0 0 0 0 0 0 0 0 0 0 0 0 186 0.002 
935 1 0.0174306 0.107974 -0.0329308 0 0 0 0.112459 0.0492086 -0.0405005 0 -0.000164368 0 0 0 0 0 0 0 0 0 0 0 0 0 0 0 0 0 140 0.002 
1389 1 0.0096024 0.107778 0.00822027 0 0 0 0.0138185 -0.0601811 0.0831166 0 -0.000164368 0 0 0 0 0 0 0 0 0 0 0 0 0 0 0 0 0 136 0.002 
2353 7 0.0178839 0.077199 -0.0314089 0 0 0 1.28686 -0.108076 0.200303 0 -0.000164368 0 0 0 0 0 0 0 0 0 0 0 0 0 0 0 0 0 0 0.002 
20 3 0.00310812 0.0819 -0.0309764 0 0 0 0.0562611 0.0747363 0.727481 -0.0125614 -0.0100002 -0.0018436 0 0 1 0 0 0 0 0 0 0 0 0 0 0 0 0 61 0.002 
1398 4 0.0137733 0.101218 0.0096645 0 0 0 0.019565 -0.0759445 0.130556 1.27762e-05 -0.000155499 -1.53777e-05 0 0 0 0 0 0 0 0 0 0 0 0 0 0 0 0 145 0.002 
1275 6 0.0130624 0.0847321 -0.0310095 0 0 0 0.347669 0.0271843 0.714336 0 -0.000164368 0 0 0 0 0 0 0 0 0 0 0 0 0 0 0 0 0 167 0.002 
1533 7 0.00819457 0.0867802 -0.0301019 0 0 0 0.169041 -0.0326731 -0.130648 0 -0.000164368 0 0 0 0 0 0 0 0 0 0 0 0 0 0 0 0 0 93 0.002 
333 2 0.00777804 0.0907557 -0.029759 0 0 0 -0.0290761 0.0468405 0.154102 0 -0.000164368 0 0 0 0 0 0 0 0 0 0 0 0 0 0 0 0 0 135 0.002 
2115 3 0.0148979 0.0926093 -0.0312261 0 0 0 0.611871 -0.167213 -0.17732 0.00120145 0.0026292 0.000565528 0 0 0 0 0 0 0 0 0 0 0 0 0 0 1 0 66 0.002 
1352 5 0.00727694 0.094694 -0.0292643 0 0 0 -0.186845 0.0804099 -0.0122307 0 -0.000164368 0 0 0 0 0 0 0 0 0 0 0 0 0 0 0 0 0 108 0.002 
121 8 0.0057509 0.0983719 -0.0297433 0 0 0 -0.00469645 0.282645 -0.0168389 0 -0.000164368 0 0 0 0 0 0 0 0 0 0 0 0 0 0 0 0 0 179 0.002 
708 2 0.00996344 0.0980065 -0.029778 0 0 0 0.0405524 0.0390101 -0.106537 0.00126682 -0.00242332 0.000916179 0 1 0 0 0 0 0 0 0 0 0 0 0 0 0 0 167 0.002 
476 2 0.016691 0.100498 -0.0309024 0 0 0 0.153456 0.104726 -0.038776 0 -0.000164368 0 0 0 0 0 0 0 0 0 0 0 0 0 0 0 0 0 196 0.002 
197 4 0.00303222 0.102242 -0.0297929 0 0 0 0.0239269 0.0178657 0.0318303 0 -0.000164368 0 0 0 0 0 0 0 0 0 0 0 0 0 0 0 0 0 149 0.002 
2308 8 0.00818623 0.101552 -0.0292943 0 0 0 0.170607 0.076303 -0.034182 0.000103284 -0.00440007 -0.00212659 0 1 0 0 0 0 0 2 0 0 0 0 0 0 0 0 11 0.002 
1308 1 0.00611751 0.104922 -0.029846 0 0 0 0.0219537 -0.0465659 0.0782861 0.00133202 0.00489866 0.00130038 2 0 0 0 0 0 0 1 0 0 0 0 0 0 0 0 124 0.002 
1140 5 0.00301592 0.107893 0.00887236 0 0 0 0.0034975 -0.0396629 0.0246328 1.233e-05 -0.000182213 2.29923e-06 0 0 0 0 0 0 0 0 0 0 0 0 0 0 0 0 142 0.002 
1417 4 0.0030046 0.107982 -0.0305883 0 0 0 -0.0107661 -0.00915986 -0.00108003 0 -0.000164368 0 0 0 0 0 0 0 0 0 0 0 0 0 0 0 0 0 82 0.002 
210 9 0.0108811 0.107996 -0.0313351 0 0 0 0.0416542 0.0693969 0.060906 0.00150529 0.00495043 0.00180324 1 0 0 0 0 0 0 0 0 0 0 0 0 0 0 0 110 0.002 
1495 4 0.0150281 0.107849 -0.0296538 0 0 0 0.0646762 0.0462303 0.0118231 -0.00272997 0.000497778 2.16255e-05 0 1 0 1 0 0 0 0 0 0 0 0 0 0 0 0 111 0.002 
823 9 0.00337139 0.078039 -0.0264737 0 0 0 0.473361 0.409363 0.935899 0 -0.000164368 0 0 0 0 0 0 0 0 0 0 0 0 0 0 0 0 0 120 0.002 
718 2 0.00585916 0.0837993 -0.0288085 0 0 0 0.0660763 0.131701 0.524991 -0.0974543 -0.088869 -0.0125654 0 0 1 0 0 0 0 0 0 0 0 0 0 0 0 0 159 0.002 
2108 9 0.011945 0.0907128 -0.0291715 0 0 0 0.474872 0.433181 -0.162969 -0.000285988 -0.00145655 -0.00357653 0 0 0 1 0 0 0 0 0 0 0 0 0 0 0 0 65 0.002 
1226 1 0.00338675 0.0913789 -0.029006 0 0 0 -0.0400312 -0.0912604 0.0458488 0 -0.000164368 0 0 0 0 0 0 0 0 0 0 0 0 0 0 0 0 0 139 0.002 
29 5 0.0030734 0.0958143 -0.0280063 0 0 0 0.038323 0.0966915 0.0590915 -0.00138106 0.00191219 0.011072 0 0 0 0 0 0 1 0 0 0 0 0 0 0 0 0 178 0.002 
925 7 0.0109966 0.0949254 -0.0274416 0 0 0 0.047418 0.0613551 -0.0394348 0 -0.000164368 0 0 0 0 0 0 0 0 0 0 0 0 0 0 0 0 0 170 0.002 
2310 7 0.014313 0.0970725 -0.028477 0 0 0 0.233891 -0.108881 0.157299 0 -0.000164368 0 0 0 0 0 0 0 0 0 0 0 0 0 0 0 0 0 4 0.002 
977 5 0.00590298 0.105369 0.00773634 0 0 0 0.0109522 -0.051226 0.0583529 -1.233e-05 -0.000146523 -2.29923e-06 0 0 0 0 0 0 0 0 0 0 0 0 0 0 0 0 160 0.002 
1662 8 0.0126899 0.100969 -0.0291335 0 0 0 0.190721 -0.0159287 0.0155357 0 -0.000164368 0 0 0 0 0 0 0 0 0 0 0 0 0 0 0 0 0 81 0.002 
826 1 0.0108468 0.104528 -0.0290625 0 0 0 0.19118 0.00850536 -0.019521 7.71965e-05 0.000313586 0.00114615 1 0 0 0 0 0 0 1 0 0 0 0 0 0 0 0 143 0.002 
2296 9 0.0158607 0.10381 -0.028801 0 0 0 0.0448602 0.105386 -0.0516309 0 -0.000164368 0 0 0 0 0 0 0 0 0 0 0 0 0 0 0 0 0 12 0.002 
1913 2 0.00312642 0.105676 -0.0273071 0 0 0 0.022865 -0.00848757 0.0133059 -0.00327191 -0.000199058 0.000952092 1 0 0 0 0 0 0 0 0 0 0 0 0 0 0 0 61 0.002 
1654 7 0.0064445 0.108001 -0.0273227 0 0 0 0.0484299 -0.0321384 0.150228 2.00281e-05 0.00136473 -0.000439607 1 0 0 0 0 0 0 0 0 0 0 0 0 0 0 0 93 0.002 
1418 5 0.0107659 0.108 -0.0270792 0 0 0 0.0599629 -0.00442205 -0.014873 6.24296e-05 2.30818e-05 0.00025216 1 0 0 0 0 0 0 0 0 0 0 0 0 0 0 0 113 0.002 
2162 7 0.0123332 0.0756375 -0.0234313 0 0 0 2.13623 -1.77384 5.55867 0 -0.000164368 0 0 0 0 0 0 0 0 0 0 0 0 0 0 0 0 0 28 0.002 
361 2 0.00950188 0.0841026 -0.027278 0 0 0 -0.615227 -1.74816 -0.716032 0.110016 0.0983761 0.014409 0 0 0 0 0 0 0 0 0 0 0 0 0 0 0 0 176 0.002 
85 8 0.00656857 0.0879269 -0.0249538 0 0 0 0.480546 -1.02887 -0.624429 0 -0.000164368 0 0 0 0 0 0 0 0 0 0 0 0 0 0 0 0 0 209 0.002 
906 3 0.0131716 0.0859871 -0.0261522 0 0 0 0.0046471 -2.35551 -0.302286 0 -0.000164368 0 0 0 0 0 0 0 0 0 0 0 0 0 0 0 0 0 150 0.002 
1910 2 0.00575366 0.0926759 -0.0259672 0 0 0 0.526597 -0.272558 -0.296791 0 -0.000164368 0 0 0 0 0 0 0 0 0 0 0 0 0 0 0 0 0 66 0.002 
2144 4 0.0151918 0.0934213 -0.0265371 0 0 0 0.518509 -0.0366661 -0.73056 -0.00114691 -0.00110643 8.16265e-05 0 0 0 1 0 0 0 0 0 0 0 0 0 0 0 0 47 0.002 
542 6 0.00676915 0.0967822 -0.0258068 0 0 0 0.0373352 0.0725833 0.0835331 0 -0.000164368 0 0 0 0 0 0 0 0 0 0 0 0 0 0 0 0 0 135 0.002 
190 5 0.0130011 0.0983578 -0.024746 0 0 0 0.3002 0.00235541 -0.0516773 0 -0.000164368 0 0 0 0 0 0 0 0 0 0 0 0 0 0 0 0 0 167 0.002 
2305 8 0.0174073 0.0964597 -0.0252228 0 0 0 0.301019 0.117328 -0.0624814 -0.0116214 -0.00415325 0.00629424 0 0 0 1 0 0 0 1 0 0 0 0 0 0 0 0 5 0.002 
983 12 0.00302168 0.0997825 -0.026603 0 0 0 0.0213496 0.0353526 0.0912017 0 -0.000164368 0 0 0 0 0 0 0 0 0 0 0 0 0 0 0 0 0 164 0.002 
2093 7 0.0064749 0.100586 -0.024529 0 0 0 -0.0611921 0.0430229 0.100472 0.00020382 -0.00882065 -0.00793889 0 0 0 0 0 0 1 0 0 0 0 0 0 0 0 0 70 0.002 
1388 4 0.0160577 0.100338 -0.0265909 0 0 0 0.346713 0.0839575 -0.0580957 0 -0.000164368 0 0 0 0 0 0 0 0 0 0 0 0 0 0 0 0 0 166 0.002 
1090 6 0.0112663 0.102034 -0.0255264 0 0 0 0.115987 0.00634239 -0.0273069 0 -0.000164368 0 0 0 0 0 0 0 0 0 0 0 0 0 0 0 0 0 132 0.002 
602 8 0.00749288 0.104444 -0.0253133 0 0 0 0.0699313 -0.0666782 0.0289764 0 -0.000164368 0 0 0 0 0 0 0 0 0 0 0 0 0 0 0 0 0 210 0.002 
1956 4 0.0140419 0.105966 -0.0259582 0 0 0 0.0624731 0.0197706 -0.0113394 -0.0016026 0.00103263 -0.00129171 0 0 0 3 0 0 0 0 0 0 0 0 0 0 0 0 57 0.002 
1973 9 0.0174732 0.108002 -0.0257784 0 0 0 0.0611338 0.00213796 0.0177015 0.000681468 0.000186859 -0.00083726 0 0 0 1 0 0 0 0 2 0 0 0 0 0 0 0 48 0.002 
251 5 0.0091519 0.0936382 -0.0236455 0 0 0 0.184789 -0.0548324 0.171902 0 -0.000164368 0 0 0 0 0 0 0 0 0 0 0 0 0 0 0 0 0 216 0.002 
1531 5 0.0135504 0.107882 0.00955483 0 0 0 0.0147678 -0.0371461 0.115175 0.000154318 0.000229993 0.000146529 0 0 0 0 3 0 0 0 0 0 0 0 0 0 0 0 137 0.002 
647 2 0.00317452 0.097038 -0.0235584 0 0 0 0.0748077 0.0117546 0.0475373 3.72233e-05 -0.000340295 -0.0002512 0 1 0 0 0 0 0 0 0 0 0 0 0 0 0 0 169 0.002 
339 6 0.00914291 0.0977407 -0.0225194 0 0 0 0.124484 0.0159425 -0.020401 0 -0.000164368 0 0 0 0 0 0 0 0 0 0 0 0 0 0 0 0 0 201 0.002 
771 4 0.0165002 0.0993591 -0.0225893 0 0 0 0.107031 0.0270852 -0.0428221 0 -0.000164368 0 0 0 0 0 0 0 0 0 0 0 0 0 0 0 0 0 165 0.002 
1056 1 0.0147789 0.102847 -0.0235791 0 0 0 0.0813498 -0.0173562 -0.042001 0.00207817 -0.00370365 0.00108758 0 0 0 1 0 0 0 0 0 0 0 0 0 0 0 0 129 0.002 
2119 1 0.00315012 0.104005 -0.0235126 0 0 0 0.100885 0.0114256 0.00664419 0.00073699 0.00127205 -0.00197676 2 0 0 0 0 0 0 0 0 0 0 0 0 0 0 0 56 0.002 
1943 1 0.0113384 0.105293 -0.023099 0 0 0 0.0654176 -0.00679041 0.028613 -0.00127989 0.000319047 0.000736399 2 0 0 1 0 0 0 0 0 0 0 0 0 0 0 0 73 0.002 
1122 3 0.0144895 0.107714 -0.0223382 0 0 0 0.157664 -0.0272368 0.0803356 -0.000438547 -0.00014171 -0.000258053 0 0 1 0 0 0 0 0 0 0 0 0 0 0 0 0 117 0.002 
1665 2 0.00300004 0.107998 -0.0235109 0 0 0 0.0117951 -0.00467228 -0.0543585 -0.000823443 0.00193184 -0.000757714 1 0 0 0 0 0 0 0 0 0 0 0 0 0 0 0 100 0.002 
168 2 0.00845896 0.107995 -0.0237149 0 0 0 0.0680517 -0.0172069 0.0255386 -0.00143888 0.000280394 -0.000458246 1 0 0 0 0 0 0 0 0 0 0 0 0 0 0 0 128 0.002 
2100 4 0.00334008 0.0879644 -0.0219388 0 0 0 -0.171445 0.161987 -0.34108 0 -0.000164368 0 0 0 0 0 0 0 0 0 0 0 0 0 0 0 0 0 51 0.002 
945 4 0.00697663 0.0900411 -0.0209809 0 0 0 -0.0925265 0.107564 -0.614231 0 -0.000164368 0 0 0 0 0 0 0 0 0 0 0 0 0 0 0 0 0 58 0.002 
77 2 0.00485293 0.0936248 -0.0208011 0 0 0 -0.0554276 0.405118 -0.409181 0.000235092 -0.00148795 -0.000821069 0 1 0 0 0 0 0 0 0 0 0 0 0 0 0 0 124 0.002 
1108 3 0.0159565 0.0936139 -0.0217258 0 0 0 0.253328 0.204027 -0.114907 0 -0.000164368 0 0 0 0 0 0 0 0 0 0 0 0 0 0 0 0 0 152 0.002 
2090 4 0.0124079 0.0955036 -0.0217493 0 0 0 0.26278 0.0466617 -0.0453521 -0.000642687 -0.00496367 -0.00148207 0 0 0 1 0 0 0 0 0 0 0 0 0 0 0 0 41 0.002 
1765 6 0.00324637 0.100512 -0.0215854 0 0 0 -0.0373267 0.0305673 0.0819563 0.00210888 0.000291283 -0.0066732 1 1 0 0 0 1 0 0 0 0 0 0 0 0 0 0 110 0.002 
1049 6 0.00713326 0.101882 -0.0208194 0 0 0 -0.0503153 0.205559 0.0556864 0.00572501 -0.0186928 0.00751775 0 0 0 0 0 2 1 0 0 0 0 0 0 0 0 0 144 0.002 
852 7 0.0115466 0.101593 -0.0215604 0 0 0 0.0574591 -0.0536222 -0.016539 -0.000253002 0.00204156 -0.00045045 0 0 0 0 0 0 1 0 0 0 0 0 0 0 0 0 165 0.002 
1166 7 0.0175797 0.105157 -0.0218956 0 0 0 -0.0042346 0.0134495 -0.0119954 -7.68464e-05 -0.000250205 0.000120635 0 0 0 0 0 0 1 0 0 0 0 0 0 0 0 0 169 0.002 
804 4 0.00612553 0.105682 -0.0214066 0 0 0 0.0717831 0.134349 0.0801212 -0.00593501 0.0269652 0.000452154 0 0 0 0 0 1 0 0 0 0 0 0 0 0 0 0 130 0.002 
730 9 0.0110821 0.0811147 -0.0199585 0 0 0 -1.70108 -0.662422 -1.63657 0 -0.000164368 0 0 0 0 0 0 0 0 0 0 0 0 0 0 0 0 0 200 0.002 
675 10 0.0110426 0.0856899 -0.018504 0 0 0 -0.802223 -0.874895 -1.01277 0 -0.000164368 0 0 0 0 0 0 0 0 0 0 0 0 0 0 0 0 0 231 0.002 
2324 6 0.00884933 0.0940883 -0.0192624 0 0 0 0.284358 0.617344 -0.477772 0 -0.000164368 0 0 0 0 0 0 0 0 0 0 0 0 0 0 0 0 0 1 0.002 
670 1 0.0160661 0.0968991 -0.0194097 0 0 0 -0.0201064 0.118525 0.108227 0 -0.000164368 0 0 0 0 0 0 0 0 0 0 0 0 0 0 0 0 0 194 0.002 
1194 8 0.00301888 0.0992022 -0.0178277 0 0 0 -0.0609326 0.0778897 0.066585 -0.000174349 -0.00365184 -0.0102019 0 0 0 0 0 1 0 0 0 0 0 0 0 0 0 0 159 0.002 
1568 8 0.00798155 0.09933 -0.0178683 0 0 0 0.16902 0.141111 0.0558122 -0.00270313 -0.00765776 -0.00207445 0 0 0 0 0 1 0 2 0 0 0 0 0 0 0 0 118 0.002 
1139 3 0.0121496 0.0984918 -0.0191157 0 0 0 0.0177376 -0.0344055 0.0137256 0.00011673 6.39252e-05 0.00125654 0 0 1 1 0 0 1 0 0 0 0 0 0 0 0 0 161 0.002 
1700 4 0.0148769 0.101142 -0.0178864 0 0 0 0.078237 -0.151643 0.013273 0.000778959 0.00220072 0.00067598 0 0 1 0 0 0 0 0 0 0 0 0 0 0 0 0 106 0.002 
527 2 0.018318 0.101801 -0.0198364 0 0 0 0.00818233 0.0436899 0.0301992 0 -0.000164368 0 0 0 0 0 0 0 0 0 0 0 0 0 0 0 0 0 185 0.002 
734 1 0.00306054 0.103876 -0.0193481 0 0 0 0.0287723 0.145118 0.0419446 0 -0.000164368 0 0 0 0 0 0 0 0 0 0 0 0 0 0 0 0 0 140 0.002 
1582 8 0.0098341 0.104569 -0.0194693 0 0 0 0.195907 0.0227025 0.111537 0.000886989 0.00298701 -0.00129936 1 0 0 0 0 0 0 2 0 0 0 0 0 0 0 0 113 0.002 
429 8 0.0140156 0.104553 -0.0199002 0 0 0 0.0739855 -0.0608471 0.0281028 0 -0.000164368 0 0 0 0 0 0 0 0 0 0 0 0 0 0 0 0 0 100 0.002 
948 4 0.00311023 0.107736 -0.0180595 0 0 0 0.0161748 -0.0473172 -0.0388343 0 -0.000164368 0 0 0 0 0 0 0 0 0 0 0 0 0 0 0 0 0 163 0.002 
962 1 0.00794151 0.107999 -0.0186716 0 0 0 0.155873 0.00405796 0.0896887 -0.000146706 0.000585906 -0.000111134 0 0 0 0 0 0 0 1 0 0 0 0 0 0 0 0 155 0.002 
2216 2 0.0119451 0.108003 -0.0191976 0 0 0 0.164361 -0.0198131 0.134446 -0.000664852 -0.00163514 -0.000314274 0 0 0 0 0 0 0 0 0 0 0 0 0 0 0 0 17 0.002 
1756 5 0.0166971 0.107935 -0.0190118 0 0 0 0.0566287 -0.0478963 0.144588 -0.000144204 -0.000300976 0.00036079 0 0 1 0 1 0 0 0 0 0 0 0 0 0 0 0 99 0.002 
531 1 0.0054862 0.0876025 -0.0176595 0 0 0 -0.230964 0.0923527 -0.379292 -0.022888 -0.00338833 0.00190029 1 0 0 0 0 0 0 0 0 0 0 0 0 0 0 0 158 0.002 
847 5 0.00910249 0.0892477 -0.0174867 0 0 0 -0.0905557 -0.324591 -0.337732 0.022888 0.0030596 -0.00190029 1 0 0 0 0 0 0 0 0 0 0 0 0 0 0 0 186 0.002 
1576 5 0.017889 0.0909731 -0.0175922 0 0 0 -0.434985 1.05427 -0.977784 0 -0.000164368 0 0 0 0 0 0 0 0 0 0 0 0 0 0 0 0 0 145 0.002 
2332 6 0.00302193 0.092595 -0.0162799 0 0 0 0.0719265 -0.0378219 -0.285029 0 -0.000164368 0 0 0 0 0 0 0 0 0 0 0 0 0 0 0 0 0 0 0.002 
791 3 0.00698969 0.0930666 -0.0155503 0 0 0 0.245586 -0.0534138 -0.273536 -6.5355e-05 -0.00043565 7.69915e-05 0 0 1 0 0 0 0 0 0 0 0 0 0 0 0 0 160 0.002 
1804 8 0.00550983 0.096083 -0.0177234 0 0 0 -0.00235282 0.0249763 -0.0626001 -0.000108108 0.000874257 0.000701922 0 1 0 0 0 0 0 0 0 0 0 0 0 0 0 0 103 0.002 
94 4 0.0127991 0.0948243 -0.0176512 0 0 0 0.198764 -0.00716758 0.0474251 0 -0.000164368 0 0 0 0 0 0 0 0 0 0 0 0 0 0 0 0 0 156 0.002 
2084 9 0.00946403 0.0961845 -0.0159014 0 0 0 0.215998 0.0471885 0.00419219 -0.000239239 0.000326276 -0.000418347 0 0 1 0 0 0 0 1 0 0 0 0 0 0 0 0 54 0.002 
938 4 0.0158302 0.0973202 -0.0154326 0 0 0 0.161639 0.107304 0.125875 -0.00658049 0.00213372 -0.00122319 0 0 0 0 0 0 0 0 0 0 0 0 0 0 0 0 145 0.002 
235 8 0.00299263 0.102475 -0.0155541 0 0 0 0.0101153 0.15845 0.0757423 0.00421223 -0.0045531 0.000489857 0 0 0 0 0 0 0 2 0 0 0 0 0 0 0 0 160 0.002 
1885 9 0.00964055 0.102481 -0.0160728 0 0 0 0.0802429 0.111125 0.149795 0.00231419 0.00279671 0.00490312 0 0 0 0 0 0 0 2 0 0 0 0 0 0 0 0 109 0.002 
930 3 0.00639269 0.104621 -0.0171846 0 0 0 0.0668229 -0.0196595 -0.0258553 0 -0.000164368 0 0 0 0 0 0 0 0 0 0 0 0 0 0 0 0 0 161 0.002 
2080 4 0.0132344 0.10427 -0.0159873 0 0 0 0.215055 -0.0754976 0.0880278 3.05244e-05 -0.000441351 -6.48748e-05 0 0 0 1 0 0 0 0 0 0 0 0 0 0 0 0 70 0.002 
631 2 0.0173301 0.104901 -0.0164735 0 0 0 -0.015681 -0.125948 0.0967848 0 -0.000164368 0 0 0 0 0 0 0 0 0 0 0 0 0 0 0 0 0 197 0.002 