ITEM: TIMESTEP
18600000
ITEM: NUMBER OF ATOMS
2247
ITEM: BOX BOUNDS ff ff ff
-0.01 0.45
-0.15 0.15
-0.08 0.1
ITEM: ATOMS id type x y z ix iy iz vx vy vz fx fy fz c_cc_1 c_cc_2 c_cc_3 c_cc_4 c_cc_5 c_cc_6 c_cc_7 c_cc_8 c_cc_9 c_cc_10 c_cc_11 c_cc_12 c_cc_13 c_cc_14 c_cc_15 c_cc_16 f_fppacc radius 
1716 6 0.00961413 -0.0439223 -0.0373866 0 0 0 0.0994147 -11.3458 13.8553 0 -0.000164368 0 0 0 0 0 0 0 0 0 0 0 0 0 0 0 0 0 73 0.002 
333 2 0.00512491 -0.0493894 0.0299182 0 0 0 1.29958 7.20312 10.3533 0 -0.000164368 0 0 0 0 0 0 0 0 0 0 0 0 0 0 0 0 0 135 0.002 
1766 3 0.00379881 -0.0180286 -0.0527121 0 0 0 -1.39798 -7.85394 -4.79013 0 -0.000164368 0 0 0 0 0 0 0 0 0 0 0 0 0 0 0 0 0 106 0.002 
708 2 0.00725069 -0.00572171 0.0574177 0 0 0 3.91602 13.6739 0.466525 0 -0.000164368 0 0 0 0 0 0 0 0 0 0 0 0 0 0 0 0 0 156 0.002 
311 2 0.0100843 0.000976432 -0.0565216 0 0 0 -1.45141 -15.3955 -5.46908 0 -0.000164368 0 0 0 0 0 0 0 0 0 0 0 0 0 0 0 0 0 64 0.002 
2112 2 0.00773975 0.0331913 -0.0372758 0 0 0 -0.473873 -2.71484 -1.31492 0 -0.000164368 0 0 0 0 0 0 0 0 0 0 0 0 0 0 0 0 0 57 0.002 
1668 1 0.0121005 0.0229052 -0.0315872 0 0 0 0.424768 -1.43551 -0.306309 0 -0.000164368 0 0 0 0 0 0 0 0 0 0 0 0 0 0 0 0 0 45 0.002 
470 3 0.00557229 0.0331745 -0.0301978 0 0 0 0.226181 -2.39684 -0.209978 0 -0.000164368 0 0 0 0 0 0 0 0 0 0 0 0 0 0 0 0 0 157 0.002 
2073 2 0.00452637 0.0104998 -0.0341448 0 0 0 3.17962 -18.7985 -20.0579 0 -0.000164368 0 0 0 0 0 0 0 0 0 0 0 0 0 0 0 0 0 38 0.002 
1777 5 0.00340734 0.0363195 -0.0257746 0 0 0 0.0581043 -2.10172 0.158356 0 -0.000164368 0 0 0 0 0 0 0 0 0 0 0 0 0 0 0 0 0 92 0.002 
1549 1 0.00654749 0.0317882 -0.0199458 0 0 0 -0.475449 -2.39523 1.2758 0 -0.000164368 0 0 0 0 0 0 0 0 0 0 0 0 0 0 0 0 0 74 0.002 
2182 2 0.00973711 0.0345296 0.00653147 0 0 0 1.70389 12.4591 -8.76451 0 -0.000164368 0 0 0 0 0 0 0 0 0 0 0 0 0 0 0 0 0 11 0.002 
164 2 0.00718834 0.034048 0.0163165 0 0 0 0.684697 6.65633 -4.37084 0 -0.000164368 0 0 0 0 0 0 0 0 0 0 0 0 0 0 0 0 0 53 0.002 
527 2 0.0029393 0.0165008 0.0552426 0 0 0 -1.58681 26.6948 -8.88779 0.48628 -0.236944 0.0552469 0 0 0 0 0 0 0 0 0 0 0 0 0 0 0 0 181 0.002 
2295 1 0.00622876 0.0354408 0.0349285 0 0 0 2.66756 0.172803 -8.16627 0 -0.000164368 0 0 0 0 0 0 0 0 0 0 0 0 0 0 0 0 0 0 0.002 
665 4 0.0179959 0.0512983 -0.0355041 0 0 0 -1.96799e-10 -2.01613e-10 2.39779e-12 3.68757e-11 3.57496e-11 1.00897e-12 0 0 0 2 0 0 0 0 0 0 0 0 0 0 0 0 268 0.002 
393 1 0.013745 0.0541007 -0.0355 0 0 0 -2.16021e-21 -1.21659e-19 5.61318e-12 2.12973e-22 0 0 0 0 0 0 0 0 0 0 0 0 0 0 0 0 0 0 1 0.002 
1145 2 0.0126127 0.0650913 -0.0355 0 0 0 2.25952e-12 -2.00025e-12 -3.34658e-12 -1.54833e-12 2.60499e-12 -1.42109e-14 0 0 0 0 0 0 0 0 0 0 0 0 0 0 0 0 4 0.002 
465 6 0.0169539 0.0642906 -0.0355016 0 0 0 1.43978e-10 -5.31244e-10 -2.24864e-12 9.79735e-11 -3.61476e-10 0 0 0 0 0 0 1 0 0 0 0 0 0 0 0 0 0 19 0.002 
933 2 0.00317976 0.04318 -0.0336127 0 0 0 0.0657444 -1.18185 -0.589149 0 -0.000164368 0 0 0 0 0 0 0 0 0 0 0 0 0 0 0 0 0 154 0.002 
1873 4 0.00698857 0.0457053 -0.0322876 0 0 0 0.424384 -1.40558 -0.00929896 0 -0.000164368 0 0 0 0 0 0 0 0 0 0 0 0 0 0 0 0 0 37 0.002 
1710 12 0.00988364 0.0489607 -0.0316272 0 0 0 0.418997 -1.30402 -0.111587 0 -0.000164368 0 0 0 0 0 0 0 0 0 0 0 0 0 0 0 0 0 80 0.002 
1910 2 0.00316387 0.0518903 -0.0323373 0 0 0 -0.542078 -1.18098 -0.248383 0 -0.000164368 0 0 0 0 0 0 0 0 0 0 0 0 0 0 0 0 0 66 0.002 
143 8 0.00300676 0.0690809 -0.0318101 0 0 0 0.0233705 -0.133699 -0.198885 0 -0.000164368 0 0 0 0 0 0 0 0 0 0 0 0 0 0 0 0 0 163 0.002 
1158 2 0.0125423 0.0687167 -0.031956 0 0 0 0.417211 0.919094 0.457399 0 -0.000164368 0 0 0 0 0 0 0 0 0 0 0 0 0 0 0 0 0 99 0.002 
931 3 0.00795085 0.0724602 -0.0325964 0 0 0 0.0652098 1.1985 0.830409 -0.0321175 -0.0158743 0.0194508 0 0 2 0 0 0 0 0 0 0 0 0 0 0 0 0 167 0.002 
1615 11 0.0039887 0.0729868 -0.0326587 0 0 0 -0.122633 -0.646546 0.389097 -0.00204002 0.00121825 -7.09224e-06 0 0 1 0 0 0 0 0 0 0 0 0 0 0 0 0 128 0.002 
945 4 0.0118451 0.0731193 -0.0328914 0 0 0 0.560349 -1.52233 -0.051002 0.0341575 0.0141629 -0.0194437 0 0 1 0 0 0 0 0 0 0 0 0 0 0 0 0 58 0.002 
1594 4 0.00656547 0.0531611 -0.0305865 0 0 0 -0.487428 -0.858998 0.783618 -0.0104285 -0.000614152 0.00620219 0 0 0 1 0 0 0 0 0 0 0 0 0 0 0 0 64 0.002 
49 3 0.0144825 0.0643078 -0.0299143 0 0 0 -0.144048 -0.616792 1.16934 0 -0.000164368 0 0 0 0 0 0 0 0 0 0 0 0 0 0 0 0 0 70 0.002 
1904 6 0.0155889 0.0705888 -0.0299385 0 0 0 -0.548165 -1.01639 0.627397 0 -0.000164368 0 0 0 0 0 0 0 0 0 0 0 0 0 0 0 0 0 41 0.002 
813 1 0.00346353 0.0409789 -0.0280318 0 0 0 -0.0946081 -2.16862 -0.0572506 0 -0.000164368 0 0 0 0 0 0 0 0 0 0 0 0 0 0 0 0 0 169 0.002 
1047 3 0.00485818 0.0500231 -0.0288163 0 0 0 -0.405718 -1.69266 0.168421 0.0104285 0.000285416 -0.00620219 0 0 0 1 0 0 0 0 0 0 0 0 0 0 0 0 114 0.002 
894 2 0.0117133 0.0526624 -0.0264629 0 0 0 -0.755664 -1.43259 2.4262 0 -0.000164368 0 0 0 0 0 0 0 0 0 0 0 0 0 0 0 0 0 164 0.002 
498 3 0.00635344 0.0573491 -0.0269834 0 0 0 0.106472 -1.57208 1.40725 0 -0.000164368 0 0 0 0 0 0 0 0 0 0 0 0 0 0 0 0 0 132 0.002 
944 5 0.0173179 0.0596331 -0.0270329 0 0 0 -1.88023 -2.11619 1.87335 0 -0.000164368 0 0 0 0 0 0 0 0 0 0 0 0 0 0 0 0 0 176 0.002 
2093 7 0.0101305 0.0399016 -0.025656 0 0 0 0.655431 -1.91583 0.440327 0 -0.000164368 0 0 0 0 0 0 0 0 0 0 0 0 0 0 0 0 0 64 0.002 
59 1 0.0113842 0.066592 -0.0267417 0 0 0 -0.023152 0.475762 0.188091 0 -0.000164368 0 0 0 0 0 0 0 0 0 0 0 0 0 0 0 0 0 149 0.002 
2318 7 0.00518796 0.0685935 -0.0223523 0 0 0 0.43406 0.0302654 0.276354 0 -0.000164368 0 0 0 0 0 0 0 0 0 0 0 0 0 0 0 0 0 0 0.002 
2010 11 0.011374 0.0461155 -0.0152442 0 0 0 0.437594 -1.7038 0.418443 0 -0.000164368 0 0 0 0 0 0 0 0 0 0 0 0 0 0 0 0 0 50 0.002 
2034 13 0.00327677 0.0680887 -0.0130697 0 0 0 0.450103 -1.13822 1.4745 0 -0.000164368 0 0 0 0 0 0 0 0 0 0 0 0 0 0 0 0 0 40 0.002 
2316 3 0.011336 0.0448568 -0.010286 0 0 0 -0.287031 -1.39284 1.21391 0 -0.000164368 0 0 0 0 0 0 0 0 0 0 0 0 0 0 0 0 0 1 0.002 
219 4 0.0174022 0.0590312 -0.011016 0 0 0 1.23587 -1.8599 1.32942 0 -0.000164368 0 0 0 0 0 0 0 0 0 0 0 0 0 0 0 0 0 14 0.002 
332 7 0.0178378 0.0686188 -0.0122447 0 0 0 0.491837 -0.420315 0.644068 0 -0.000164368 0 0 0 0 0 0 0 0 0 0 0 0 0 0 0 0 0 159 0.002 
2162 7 0.00560081 0.0480092 -0.00632845 0 0 0 0.16622 -1.13781 0.990363 0 -0.000164368 0 0 0 0 0 0 0 0 0 0 0 0 0 0 0 0 0 28 0.002 
165 4 0.00314567 0.0616326 -0.00659458 0 0 0 0.217267 -0.969887 0.955016 0 -0.000164368 0 0 0 0 0 0 0 0 0 0 0 0 0 0 0 0 0 183 0.002 
597 1 0.0132788 0.0638282 -0.00792415 0 0 0 0.0723212 -0.648636 0.824286 0 -0.000164368 0 0 0 0 0 0 0 0 0 0 0 0 0 0 0 0 0 141 0.002 
136 8 0.00688873 0.069763 -0.00725999 0 0 0 0.0518526 -0.253139 1.31558 0 -0.000164368 0 0 0 0 0 0 0 0 0 0 0 0 0 0 0 0 0 57 0.002 
2064 6 0.0124416 0.0742216 0.00690101 0 0 0 0.10147 -0.708657 -0.0326981 0 -0.000164368 0 0 0 0 0 0 0 0 0 0 0 0 0 0 0 0 0 32 0.002 
494 5 0.0145088 0.0695978 0.0117222 0 0 0 -0.325565 -0.495903 -0.413149 0 -0.000164368 0 0 0 0 0 0 0 0 0 0 0 0 0 0 0 0 0 157 0.002 
1066 3 0.00748812 0.0743156 0.0108686 0 0 0 -0.144841 -0.190947 -0.281013 0 -0.000164368 0 0 0 0 0 0 0 0 0 0 0 0 0 0 0 0 0 100 0.002 
1896 2 0.0121918 0.072962 0.010922 0 0 0 -0.02662 -0.304383 -0.391693 0 -0.000164368 0 0 0 0 0 0 0 0 0 0 0 0 0 0 0 0 0 97 0.002 
1987 8 0.0180947 0.0637876 0.0155434 0 0 0 -0.00179541 -0.12425 -0.484959 -0.0129442 -0.00101512 -0.00482639 0 0 0 0 0 0 0 1 0 0 0 0 0 0 0 0 53 0.002 
1347 3 0.00995209 0.0730966 0.0149453 0 0 0 0.286079 -0.236839 -0.962818 0 -0.000164368 0 0 0 0 0 0 0 0 0 0 0 0 0 0 0 0 0 145 0.002 
1739 4 0.00376098 0.0708218 0.016519 0 0 0 -0.401349 -0.0909334 -0.506086 0 -0.000164368 0 0 0 0 0 0 0 0 0 0 0 0 0 0 0 0 0 117 0.002 
1960 7 0.0080503 0.0706621 0.0175304 0 0 0 0.0765781 0.292487 -0.845187 0 -0.000164368 0 0 0 0 0 0 0 0 0 0 0 0 0 0 0 0 0 69 0.002 
904 8 0.0141678 0.0702686 0.0176124 0 0 0 -0.29878 -0.432169 -0.282628 0 -0.000164368 0 0 0 0 0 0 0 0 0 0 0 0 0 0 0 0 0 190 0.002 
2012 4 0.00624936 0.0688998 0.0207439 0 0 0 -0.385014 0.447856 -0.666428 0 -0.000164368 0 0 0 0 0 0 0 0 0 0 0 0 0 0 0 0 0 65 0.002 
647 2 0.00937116 0.0747184 0.0209142 0 0 0 -0.0966981 -0.281692 -0.086847 -0.00260295 0.00741888 -0.00530106 0 1 0 0 0 0 0 0 0 0 0 0 0 0 0 0 163 0.002 
1968 4 0.0157982 0.073859 0.0204398 0 0 0 -0.173669 -0.499326 0.0497154 0 -0.000164368 0 0 0 0 0 0 0 0 0 0 0 0 0 0 0 0 0 82 0.002 
1568 8 0.00349968 0.0611291 0.0226401 0 0 0 0.504712 0.0739257 -0.160116 0 -0.000164368 0 0 0 0 0 0 0 0 0 0 0 0 0 0 0 0 0 109 0.002 
1399 5 0.0030198 0.0674097 0.0228239 0 0 0 0.0902043 0.65988 -0.3179 0 -0.000164368 0 0 0 0 0 0 0 0 0 0 0 0 0 0 0 0 0 131 0.002 
1152 9 0.0174271 0.0695109 0.0217167 0 0 0 0.296174 -0.015545 -0.617289 0 -0.000164368 0 0 0 0 0 0 0 0 0 0 0 0 0 0 0 0 0 164 0.002 
242 6 0.0116128 0.0715133 0.0216974 0 0 0 -0.0767423 -0.266979 -0.316668 0.00104235 -0.0047086 0.00267341 0 1 0 0 0 1 0 0 0 0 0 0 0 0 0 0 176 0.002 
605 8 0.01535 0.0681936 0.025355 0 0 0 0.163355 0.757712 0.52586 0 -0.000164368 0 0 0 0 0 0 0 0 0 0 0 0 0 0 0 0 0 198 0.002 
1201 1 0.0114698 0.0691659 0.0249186 0 0 0 -0.221438 -0.0353656 -0.0670129 0.0015606 -0.00320339 0.00262765 0 0 0 0 0 1 0 0 0 0 0 0 0 0 0 0 137 0.002 
1243 4 0.00929357 0.0725502 0.0250594 0 0 0 0.0550568 -0.199514 -0.143781 0 -0.000164368 0 0 0 0 0 0 0 0 0 0 0 0 0 0 0 0 0 176 0.002 
1070 2 0.00299908 0.0744566 0.0245654 0 0 0 0.000196151 -0.269372 0.0234242 -0.00327932 0.000745769 0.000485717 0 1 0 0 0 0 0 0 0 0 0 0 0 0 0 0 121 0.002 
1724 1 0.0163776 0.0727914 0.024299 0 0 0 0.108211 -0.527885 0.0391337 0 -0.000164368 0 0 0 0 0 0 0 0 0 0 0 0 0 0 0 0 0 66 0.002 
1752 2 0.00618114 0.0572346 0.0273434 0 0 0 -0.064925 -0.54636 -0.100185 0 -0.000164368 0 0 0 0 0 0 0 0 0 0 0 0 0 0 0 0 0 60 0.002 
1076 3 0.00300731 0.0599106 0.0268236 0 0 0 0.0435548 -0.545863 -0.461335 0 -0.000164368 0 0 0 0 0 0 0 0 0 0 0 0 0 0 0 0 0 134 0.002 
1388 4 0.00300482 0.0679004 0.027015 0 0 0 0.00392927 -0.231367 0.0906254 0 -0.000164368 0 0 0 0 0 0 0 0 0 0 0 0 0 0 0 0 0 160 0.002 
1204 5 0.00509294 0.0713607 0.0263006 0 0 0 0.141754 -0.245017 0.072901 0 -0.000164368 0 0 0 0 0 0 0 0 0 0 0 0 0 0 0 0 0 168 0.002 
2027 2 0.0131724 0.0724511 0.0267379 0 0 0 0.0330674 -0.423997 -0.00170162 0 -0.000164368 0 0 0 0 0 0 0 0 0 0 0 0 0 0 0 0 0 55 0.002 
1499 5 0.00328398 0.0569199 0.0301107 0 0 0 -0.026387 -0.471594 -0.00875684 0 -0.000164368 0 0 0 0 0 0 0 0 0 0 0 0 0 0 0 0 0 63 0.002 
1652 6 0.0182238 0.062443 0.0281032 0 0 0 -0.0496819 -0.447633 -0.105673 0 -0.000164368 0 0 0 0 0 0 0 0 0 0 0 0 0 0 0 0 0 98 0.002 
306 5 0.00645588 0.0667597 0.0286866 0 0 0 0.151933 -0.220189 -0.17709 0 -0.000164368 0 0 0 0 0 0 0 0 0 0 0 0 0 0 0 0 0 195 0.002 
1645 1 0.0121064 0.0674559 0.0286708 0 0 0 0.328782 0.114766 0.0424665 0 -0.000164368 0 0 0 0 0 0 0 0 0 0 0 0 0 0 0 0 0 110 0.002 
440 1 0.016168 0.0663211 0.0292813 0 0 0 -0.0213742 -0.378409 0.00463954 0 -0.000164368 0 0 0 0 0 0 0 0 0 0 0 0 0 0 0 0 0 161 0.002 
903 3 0.00874898 0.0700562 0.0281683 0 0 0 0.190089 -0.276273 -0.14812 0 -0.000164368 0 0 0 0 0 0 0 0 0 0 0 0 0 0 0 0 0 157 0.002 
1653 5 0.0165973 0.0709802 0.0287303 0 0 0 -0.0334407 -0.415199 -0.034036 6.72425e-05 -0.0014106 -0.000759136 0 0 0 0 1 0 0 0 0 0 0 0 0 0 0 0 155 0.002 
361 2 0.00301636 0.0732298 0.029243 0 0 0 0.00815606 -0.162992 -0.0188284 0 -0.000164368 0 0 0 0 0 0 0 0 0 0 0 0 0 0 0 0 0 175 0.002 
1329 5 0.00710598 0.0736731 0.0296139 0 0 0 -0.0108668 -0.215261 -0.1372 -0.00107635 -0.000811538 -8.28631e-05 0 0 0 0 0 0 0 0 0 0 0 0 0 0 0 0 125 0.002 
104 5 0.0110788 0.0739784 0.0299424 0 0 0 -0.0517137 -0.167948 0.029925 -0.00633766 -0.00288945 0.000248145 0 0 0 0 2 0 0 0 0 0 0 0 0 0 0 0 118 0.002 
2123 6 0.0150146 0.0745363 0.0296271 0 0 0 -0.0197794 -0.384975 -0.00546656 0.00255857 0.000256107 0.000335439 0 0 0 0 2 1 0 0 0 0 0 0 0 0 0 0 61 0.002 
987 4 0.00904617 0.057704 0.0320464 0 0 0 0.246208 -0.343207 0.103651 0 -0.000164368 0 0 0 0 0 0 0 0 0 0 0 0 0 0 0 0 0 138 0.002 
2059 4 0.0162402 0.0572576 0.031235 0 0 0 0.0411094 -0.523 0.0499709 0 -0.000164368 0 0 0 0 0 0 0 0 0 0 0 0 0 0 0 0 0 53 0.002 
1363 8 0.00404176 0.0617048 0.030605 0 0 0 0.639843 -0.200277 -0.434935 0 -0.000164368 0 0 0 0 0 0 0 0 0 0 0 0 0 0 0 0 0 114 0.002 
670 1 0.0100687 0.0636677 0.030696 0 0 0 0.299489 -0.223783 -0.201464 0 -0.000164368 0 0 0 0 0 0 0 0 0 0 0 0 0 0 0 0 0 187 0.002 
285 1 0.00333783 0.0658841 0.0311153 0 0 0 0.169143 -0.120085 -0.12378 0 -0.000164368 0 0 0 0 0 0 0 0 0 0 0 0 0 0 0 0 0 174 0.002 
1912 1 0.0125947 0.0611853 0.0328009 0 0 0 0.0448696 -0.4262 0.0867485 0 -0.000164368 0 0 0 0 0 0 0 0 0 0 0 0 0 0 0 0 0 83 0.002 
905 3 0.016667 0.0616247 0.0328272 0 0 0 0.110815 -0.409854 -0.0149464 0 -0.000164368 0 0 0 0 0 0 0 0 0 0 0 0 0 0 0 0 0 133 0.002 
1637 7 0.00652295 0.0677631 0.0328108 0 0 0 -0.241706 0.0831252 -0.0550342 0 -0.000164368 0 0 0 0 0 0 0 0 0 0 0 0 0 0 0 0 0 114 0.002 
1616 6 0.0143167 0.0658487 0.0329989 0 0 0 -0.0133412 -0.39155 -0.0002221 0 -0.000164368 0 0 0 0 0 0 0 0 0 0 0 0 0 0 0 0 0 93 0.002 
998 6 0.00310964 0.0699777 0.0328286 0 0 0 0.00803373 -0.311968 -0.0115027 0 -0.000164368 0 0 0 0 0 0 0 0 0 0 0 0 0 0 0 0 0 146 0.002 
1260 7 0.010982 0.0685371 0.0329762 0 0 0 0.0240164 -0.287876 -0.00427893 0 -0.000164368 0 0 0 0 0 0 0 0 0 0 0 0 0 0 0 0 0 132 0.002 
1776 5 0.0170129 0.0688719 0.0328486 0 0 0 -0.0271919 -0.371478 -0.00809293 0 -0.000164368 0 0 0 0 0 0 0 0 0 0 0 0 0 0 0 0 0 83 0.002 
865 7 0.00775632 0.0715834 0.0329776 0 0 0 0.119803 0.00559319 0.0133689 0 -0.000164368 0 0 0 0 0 0 0 0 0 0 0 0 0 0 0 0 0 171 0.002 
1157 1 0.0128929 0.0720825 0.0329801 0 0 0 -0.0102229 -0.289413 -0.00662195 0 -0.000164368 0 0 0 0 0 0 0 0 0 0 0 0 0 0 0 0 0 71 0.002 
1002 4 0.0031339 0.0747438 0.0329914 0 0 0 -0.0777792 -0.218088 -0.0168551 0 -0.000164368 0 0 0 0 0 0 0 0 0 0 0 0 0 0 0 0 0 144 0.002 
1967 3 0.0168298 0.0728852 0.0329908 0 0 0 0.00282537 -0.369845 0.0271182 -0.000969115 0.000264717 -0.000423261 0 0 0 0 0 0 0 0 0 0 0 0 0 0 0 0 64 0.002 
981 2 0.018611 0.0686322 0.0176298 0 0 0 -0.291359 -0.59303 -0.101632 0 -0.000164368 0 0 0 0 0 0 0 0 0 0 0 0 0 0 0 0 0 137 0.002 
373 3 0.0176092 0.0749066 0.0170208 0 0 0 -0.22507 -0.598781 -0.0219027 0 -0.000164368 0 0 0 0 0 0 0 0 0 0 0 0 0 0 0 0 0 151 0.002 
574 1 0.00310925 0.0780048 -0.0324907 0 0 0 -0.05539 0.287742 0.33419 0 -0.000164368 0 0 0 0 0 0 0 0 0 0 0 0 0 0 0 0 0 146 0.002 
2068 13 0.0126781 0.0775653 -0.0325295 0 0 0 -1.74823 0.384359 0.517607 0 -0.000164368 0 0 0 0 0 0 0 0 0 0 0 0 0 0 0 0 0 50 0.002 
796 1 0.00872894 0.0810504 -0.0328771 0 0 0 0.141229 -0.227853 0.137155 0 -0.000164368 0 0 0 0 0 0 0 0 0 0 0 0 0 0 0 0 0 167 0.002 
207 6 0.0135179 0.082331 -0.0324288 0 0 0 -1.07418 0.841425 0.230871 0.0424897 -0.0844984 -0.064251 0 0 0 0 0 1 0 0 0 0 0 0 0 0 0 0 151 0.002 
2308 8 0.0127023 0.0862076 -0.0326227 0 0 0 -0.330774 0.0577508 0.316932 -0.0424897 0.0841697 0.064251 0 0 0 0 0 1 0 0 0 0 0 0 0 0 0 0 2 0.002 
158 7 0.0168946 0.0845113 -0.032644 0 0 0 -0.237154 -0.0240259 0.562378 -0.0572429 0.0260453 -0.0138905 0 0 0 0 0 0 1 0 0 0 0 0 0 0 0 0 111 0.002 
2108 9 0.00297951 0.0874024 -0.0330541 0 0 0 -0.0712563 -0.526981 0.204553 0.0139107 0.00257488 0.066 0 0 0 0 0 0 0 0 1 0 0 0 0 0 0 0 62 0.002 
121 8 0.00871634 0.0873252 -0.0329068 0 0 0 0.294355 -0.516363 -0.0404064 0 -0.000164368 0 0 0 0 0 0 0 0 0 0 0 0 0 0 0 0 0 175 0.002 
1445 3 0.00468351 0.091115 -0.0329693 0 0 0 -0.171772 -0.0674611 0.0399899 0 -0.000164368 0 0 0 0 0 0 0 0 0 0 0 0 0 0 0 0 0 107 0.002 
2296 9 0.0136341 0.0902435 -0.0330864 0 0 0 0.610815 0.206687 -0.833353 0.0804715 -0.105477 0.474337 0 0 0 0 0 0 0 0 1 0 0 0 0 0 0 0 7 0.002 
1014 8 0.0184952 0.0902352 -0.0329614 0 0 0 -0.400728 0.315511 -0.155071 -0.0336743 0.0283171 -0.0258312 0 0 0 0 0 0 0 2 0 0 0 0 0 0 0 0 182 0.002 
1662 8 0.0100074 0.0921139 -0.0330546 0 0 0 -0.175645 0.19381 -0.0486316 0.0281113 -0.0290212 0.0634527 0 0 0 0 0 0 0 2 0 0 0 0 0 0 0 0 72 0.002 
1056 1 0.0160598 0.0933315 -0.0322676 0 0 0 -0.409112 0.044948 0.082568 0.000678121 0.00376231 -0.00464852 0 0 0 0 0 0 0 1 0 0 0 0 0 0 0 0 121 0.002 
1958 12 0.00299418 0.0956105 -0.032977 0 0 0 -0.226366 0.0330347 -0.16941 0.0269521 0.00410699 0.00136043 0 0 0 0 0 0 0 0 0 0 0 0 0 0 0 0 76 0.002 
1049 6 0.00683636 0.0944901 -0.0328535 0 0 0 -0.328941 0.178532 -0.345355 -0.0166052 0.021671 0.00671743 0 0 0 0 0 0 0 1 0 0 0 0 0 0 0 0 133 0.002 
476 2 0.01041 0.0965007 -0.0329438 0 0 0 0.0153365 -0.101483 -0.0165572 0 -0.000164368 0 0 0 0 0 0 0 0 0 0 0 0 0 0 0 0 0 191 0.002 
1680 3 0.0147269 0.0970561 -0.0329431 0 0 0 -0.368027 -0.0568856 -0.0186751 -0.00063672 -0.00674035 -0.00646148 0 0 1 0 0 0 0 0 0 0 0 0 0 0 0 0 118 0.002 
197 4 0.00299398 0.0996978 -0.0329335 0 0 0 0.0170293 -0.0106569 0.00662495 -0.000532691 -0.000303497 0.000260943 0 0 0 1 0 0 0 0 0 0 0 0 0 0 0 0 139 0.002 
826 1 0.0103878 0.100539 -0.0330002 0 0 0 0.0119591 -0.0450867 0.0167023 4.32572e-05 -0.000197619 -0.000574903 0 0 0 0 0 0 0 0 0 0 0 0 0 0 0 0 134 0.002 
58 4 0.0186243 0.099013 -0.0328573 0 0 0 -0.13141 -0.15913 0.0371705 0.00224107 -0.00479874 0.000408188 0 0 0 3 0 0 0 0 0 0 0 0 0 0 0 0 151 0.002 
1308 1 0.00651138 0.101577 -0.0329984 0 0 0 0.0439717 -0.0298528 0.0146146 -0.00193636 -0.00424138 -0.00151434 0 0 0 1 0 0 0 0 0 0 0 0 0 0 0 0 118 0.002 
1216 2 0.0164172 0.102329 -0.0330051 0 0 0 -0.0677759 -0.0940248 0.00597518 -3.04508e-05 -0.00349279 0.000931416 0 2 0 1 0 0 0 0 0 0 0 0 0 0 0 0 65 0.002 
529 6 0.00300983 0.103793 -0.0327776 0 0 0 0.0606523 -0.0196733 0.0386177 0 -0.000164368 0 0 0 0 0 0 0 0 0 0 0 0 0 0 0 0 0 145 0.002 
241 1 0.00930017 0.104418 -0.0329883 0 0 0 -0.0136284 0.00528233 0.00627025 0.000138009 -0.00098792 -0.00208653 1 0 0 0 0 0 0 0 0 0 0 0 0 0 0 0 206 0.002 
214 4 0.00701859 0.107703 -0.0328554 0 0 0 0.0559078 0.0581179 -0.0440576 0 -0.000164368 0 0 0 0 0 0 0 0 0 0 0 0 0 0 0 0 0 184 0.002 
1495 4 0.0141927 0.105627 -0.0329032 0 0 0 -0.0895273 -0.080512 0.0291501 0.000213821 0.00188138 0.00202368 0 1 0 1 0 0 0 0 0 0 0 0 0 0 0 0 104 0.002 
1973 9 0.0181562 0.107761 -0.0329021 0 0 0 -0.214956 0.164525 0.00705048 0 -0.000164368 0 0 0 0 0 0 0 0 0 0 0 0 0 0 0 0 0 43 0.002 
1417 4 0.00300549 0.107947 -0.0329916 0 0 0 0.0129341 0.0351983 0.02112 0 -0.000164368 0 0 0 0 0 0 0 0 0 0 0 0 0 0 0 0 0 81 0.002 
210 9 0.0110073 0.108014 -0.0329689 0 0 0 -0.0485173 -0.000967022 0.0232232 0.00103989 0.000496824 -0.000252243 1 0 0 1 0 0 0 0 1 0 0 0 0 0 0 0 101 0.002 
351 8 0.0153711 0.07719 -0.0293951 0 0 0 -2.23767 -0.330787 -0.938555 -0.223034 0.0421835 -0.187823 0 0 0 0 0 0 0 0 0 0 0 0 0 0 0 0 112 0.002 
1091 12 0.00660088 0.0790695 -0.0297775 0 0 0 -0.193773 -1.69437 -0.281985 0 -0.000164368 0 0 0 0 0 0 0 0 0 0 0 0 0 0 0 0 0 126 0.002 
704 3 0.00583044 0.0849587 -0.0311765 0 0 0 -0.0867431 0.0418016 0.629456 0 -0.000164368 0 0 0 0 0 0 0 0 0 0 0 0 0 0 0 0 0 155 0.002 
983 12 0.00464126 0.0885309 -0.0296912 0 0 0 -0.544083 -0.0381665 0.461282 0.0262099 -0.0288044 0.0753333 0 0 0 0 0 0 0 0 1 0 0 2 0 0 0 0 158 0.002 
2119 1 0.00298866 0.0921163 -0.0294736 0 0 0 -0.379767 0.25481 -0.331013 0.0302683 -0.0183073 -0.0457378 1 0 0 0 0 0 0 0 0 0 0 1 0 0 0 0 51 0.002 
429 8 0.0126501 0.0943604 -0.030377 0 0 0 -0.206964 -0.0822972 0.235742 0 -0.000164368 0 0 0 0 0 0 0 0 0 0 0 0 0 0 0 0 0 90 0.002 
520 1 0.00663095 0.0982247 -0.0308418 0 0 0 -0.184597 -0.0701994 -0.0111001 -0.000755419 -0.00696775 0.002517 0 0 0 0 0 0 0 0 0 0 0 0 0 0 0 0 167 0.002 
1166 7 0.0177236 0.0967491 -0.0294922 0 0 0 -0.276155 -0.211817 0.0935509 0.000526807 0.000163111 0.000255508 0 0 0 0 0 0 2 0 0 0 0 0 0 0 0 0 161 0.002 
1956 4 0.0137314 0.100266 -0.0308094 0 0 0 -0.197187 0.0829716 0.0875959 -0.00226711 0.000585585 -0.00253972 0 0 1 2 0 0 0 0 0 0 0 0 0 0 0 0 46 0.002 
168 2 0.0102228 0.101945 -0.0292589 0 0 0 -0.0113823 0.0299339 0.0137748 0 -0.000164368 0 0 0 0 0 0 0 0 0 0 0 0 0 0 0 0 0 115 0.002 
1654 7 0.00683453 0.104085 -0.0298206 0 0 0 0.036691 -0.0341637 0.120851 0.00309555 0.00130398 -0.00210619 0 0 0 0 0 0 1 0 0 0 0 0 0 0 0 0 86 0.002 
937 2 0.0176992 0.104617 -0.0296863 0 0 0 -0.122638 -0.0853185 0.187259 0 -0.000164368 0 0 0 0 0 0 0 0 0 0 0 0 0 0 0 0 0 150 0.002 
1418 5 0.0105572 0.106152 -0.0294657 0 0 0 -0.0217122 0.0608475 0.0414592 0.000747425 -0.00261859 0.00121797 0 0 0 0 1 0 0 0 1 0 0 0 0 0 0 0 108 0.002 
1122 3 0.0145256 0.10797 -0.0296475 0 0 0 -0.337474 0.0664404 0.056991 0 -0.000164368 0 0 0 0 0 0 0 0 0 0 0 0 0 0 0 0 0 113 0.002 
1272 4 0.0126698 0.0840184 -0.0285132 0 0 0 -1.29506 -0.56173 0.517979 0 -0.000164368 0 0 0 0 0 0 0 0 0 0 0 0 0 0 0 0 0 118 0.002 
1933 2 0.00299179 0.084705 -0.0283519 0 0 0 -0.215356 0.454531 0.563828 0.0323989 0.00322314 -0.0158413 0 0 0 0 0 0 0 0 0 0 0 0 0 0 0 0 67 0.002 
1885 9 0.00916909 0.0864872 -0.0288472 0 0 0 0.039627 -0.930015 0.0495729 0 -0.000164368 0 0 0 0 0 0 0 0 0 0 0 0 0 0 0 0 0 97 0.002 
1943 1 0.0139512 0.0889631 -0.0293661 0 0 0 0.165283 -0.286307 -0.736222 -0.0158213 0.0292229 0.0675594 0 0 0 0 0 0 0 0 1 0 0 0 0 0 0 0 58 0.002 
1570 7 0.00960171 0.0909844 -0.0293245 0 0 0 -0.513412 -0.260463 -0.325874 0.107586 0.0415057 0.0707504 0 0 0 0 0 0 1 1 0 0 0 0 0 0 0 0 112 0.002 
1176 4 0.0163247 0.0922923 -0.0272234 0 0 0 -0.26009 -0.126671 0.00733397 0.000471944 -0.00108 -0.000348735 0 0 0 1 0 0 0 0 0 0 0 0 0 0 0 0 156 0.002 
930 3 0.00299751 0.096055 -0.0289478 0 0 0 0.00970829 0.088418 0.0604107 -0.00724081 0.0255673 0.0168465 1 0 1 0 0 0 0 0 0 0 0 0 0 0 0 0 156 0.002 
1582 8 0.00758006 0.0944129 -0.0289157 0 0 0 -0.183297 0.00995583 -0.191399 -0.000642672 0.00129923 0.00194883 0 0 0 0 0 0 0 2 0 0 0 0 0 0 0 0 104 0.002 
602 8 0.0101582 0.0977306 -0.0289878 0 0 0 -0.228965 -0.16304 0.0663292 0 -0.000164368 0 0 0 0 0 0 0 0 0 0 0 0 0 0 0 0 0 200 0.002 
2216 2 0.0140447 0.0972954 -0.0280419 0 0 0 -0.243813 -0.0168388 0.164558 -0.0031116 -0.000241736 0.000558455 0 0 0 0 0 0 1 0 0 0 0 0 0 0 0 0 7 0.002 
1913 2 0.00361816 0.10004 -0.0288698 0 0 0 -0.0106268 -0.0216671 0.0300319 0.000304618 0.000361028 0.000187896 0 2 0 0 0 0 0 0 0 0 0 0 0 0 0 0 52 0.002 
606 1 0.00702095 0.101051 -0.0270264 0 0 0 -0.0505854 0.161729 0.0491695 -0.000708425 0.000945986 -0.000516943 2 1 0 0 0 0 0 0 0 0 0 0 0 0 0 0 166 0.002 
2303 1 0.0163956 0.100925 -0.027912 0 0 0 -0.0862861 -0.0981741 0.0468337 0.00776992 0.00211111 -0.00055343 2 0 0 1 0 0 0 0 0 0 0 0 0 0 0 0 6 0.002 
804 4 0.00300279 0.103988 -0.0286991 0 0 0 0.0515938 0.00408917 0.100418 -0.00329257 -0.00304844 0.00160164 0 1 0 1 0 0 1 0 0 0 0 0 0 0 0 0 119 0.002 
2229 3 0.0138134 0.103853 -0.0290517 0 0 0 -0.155253 -0.0795612 0.102378 0.000836527 0.00424156 0.00550208 0 0 0 1 0 0 0 0 0 0 0 0 0 0 0 0 15 0.002 
1665 2 0.00299998 0.107976 -0.0289793 0 0 0 0.0425024 -0.0194622 0.0508272 -0.000743123 0.000922859 0.000404936 0 0 0 1 0 0 0 0 0 0 0 0 0 0 0 0 97 0.002 
962 1 0.00703032 0.107923 -0.0286744 0 0 0 0.00552277 -0.00182144 0.13059 0 -0.000164368 0 0 0 0 0 0 0 0 0 0 0 0 0 0 0 0 0 148 0.002 
585 8 0.00444244 0.0753196 -0.0251648 0 0 0 -0.743776 -1.68413 -0.445584 0 -0.000164368 0 0 0 0 0 0 0 0 0 0 0 0 0 0 0 0 0 54 0.002 
1160 4 0.0109331 0.0900802 -0.0256472 0 0 0 0.464271 3.33707 0.574106 0 -0.000164368 0 0 0 0 0 0 0 0 0 0 0 0 0 0 0 0 0 192 0.002 
734 1 0.00296561 0.0894878 -0.0258115 0 0 0 0.199783 0.175906 0.126144 -0.0539427 -0.0241184 0.0606633 1 0 0 0 0 0 0 0 0 0 0 0 0 0 0 0 135 0.002 
264 2 0.00666381 0.090329 -0.0268164 0 0 0 -0.23428 0.327475 -0.125022 0.0595489 -0.0053983 0.0552391 1 0 0 0 0 0 1 0 0 0 0 1 0 0 0 0 173 0.002 
415 7 0.00431018 0.0931735 -0.0248738 0 0 0 0.0228185 -0.305411 0.111141 0 -0.000164368 0 0 0 0 0 0 0 0 0 0 0 0 0 0 0 0 0 207 0.002 
1666 9 0.0108503 0.0941221 -0.0266311 0 0 0 -0.311782 -0.0991077 0.0949328 -0.000667984 -0.00045359 -0.000929972 0 0 0 0 0 0 0 1 0 0 0 0 0 0 0 0 109 0.002 
1557 3 0.016209 0.095659 -0.0250749 0 0 0 -0.196735 -0.135921 0.0628674 -0.000328263 0.00123731 0.000184102 0 0 1 1 0 0 0 0 0 0 0 0 0 0 0 0 96 0.002 
1264 2 0.00598154 0.0972217 -0.0265633 0 0 0 0.0477064 0.132792 -0.0302762 0.00398313 -0.00209247 -0.000836156 1 0 1 0 0 0 0 1 0 0 0 0 0 0 0 0 144 0.002 
807 8 0.0127138 0.100696 -0.02638 0 0 0 -0.00461928 0.135901 0.0651876 -0.00458603 -0.00308423 0.00239974 1 0 0 0 0 0 0 0 0 0 0 0 0 0 0 0 192 0.002 
948 4 0.00300572 0.101808 -0.0253073 0 0 0 0.00976838 -0.0630513 0.11724 0 -0.000164368 0 0 0 0 0 0 0 0 0 0 0 0 0 0 0 0 0 159 0.002 
795 6 0.00865824 0.104625 -0.0263015 0 0 0 0.0129455 0.0957712 0.104898 -0.00600885 -0.000420948 0.000353952 1 0 0 0 1 2 0 0 0 0 0 0 0 0 0 0 107 0.002 
489 6 0.0122904 0.104321 -0.0246881 0 0 0 -0.0393288 0.0213265 0.148681 0.00193851 -0.00109783 -0.00187933 0 0 0 0 0 3 0 0 0 0 0 0 0 0 0 0 142 0.002 
786 6 0.0161308 0.104282 -0.0257608 0 0 0 -0.0307054 -0.182554 0.1257 0.00182124 -0.000697924 0.000427837 1 0 0 0 0 1 0 0 0 0 0 0 0 0 0 0 159 0.002 
793 2 0.00492389 0.105948 -0.0257882 0 0 0 0.016226 0.0124636 0.182905 -0.00641037 0.00148395 -0.00292963 0 1 0 0 0 1 0 0 0 0 0 0 0 0 0 0 153 0.002 
1592 3 0.0125498 0.108009 -0.0261681 0 0 0 -0.0788763 -0.00664447 0.068364 0.00234317 0.000759678 -0.00236137 0 0 0 0 0 1 0 0 0 0 0 0 0 0 0 0 130 0.002 
778 3 0.0179088 0.0873824 -0.023183 0 0 0 0.137689 1.01345 1.41186 -0.0109237 -0.0103445 0.011032 0 0 1 0 0 0 0 0 0 0 0 0 0 0 0 0 138 0.002 
2290 3 0.0080811 0.0929878 -0.0227289 0 0 0 0.13194 -0.191463 0.0516724 0 -0.000164368 0 0 0 0 0 0 0 0 0 0 0 0 0 0 0 0 0 0 0.002 
1009 4 0.0127172 0.0958884 -0.0231279 0 0 0 -0.0817288 -0.105296 0.390962 0 -0.000164368 0 0 0 0 0 0 0 0 0 0 0 0 0 0 0 0 0 154 0.002 
2085 7 0.00300017 0.0974503 -0.0238667 0 0 0 0.00359265 -0.186291 0.0145993 -0.000462649 -0.000339778 7.25174e-05 0 0 0 0 0 0 1 0 0 0 0 0 0 0 0 0 47 0.002 
1046 3 0.00890944 0.0969076 -0.0238465 0 0 0 -0.0687314 0.0441115 0.169614 0 -0.000164368 0 0 0 0 0 0 0 0 0 0 0 0 0 0 0 0 0 19 0.002 
1466 4 0.00598351 0.100038 -0.0232388 0 0 0 -0.00700714 -0.201635 0.0632961 -0.00592639 -0.00233123 0.000135314 0 0 0 1 0 0 1 0 0 0 0 0 0 0 0 0 80 0.002 
2309 7 0.0154906 0.0994328 -0.0237895 0 0 0 -0.192166 -0.0376166 0.0939873 0 -0.000164368 0 0 0 0 0 0 0 0 0 0 0 0 0 0 0 0 0 0 0.002 
57 7 0.00967442 0.101446 -0.0237923 0 0 0 -0.06423 -0.0470951 0.103203 -0.00501887 -0.00244045 -0.00526577 0 0 0 1 0 1 1 0 0 0 0 0 0 0 0 0 179 0.002 
493 4 0.0185493 0.101948 -0.0229392 0 0 0 -0.139156 -0.178304 0.219471 -0.00383413 0.000839224 -0.00402666 0 0 0 1 0 0 0 0 0 0 0 0 0 0 0 0 83 0.002 
1864 3 0.00686326 0.104219 -0.0227589 0 0 0 0.0694511 -0.00334663 0.173968 -0.00776192 -0.00114801 -0.000515477 0 1 1 0 0 1 0 0 0 0 0 0 0 0 0 0 46 0.002 
1064 3 0.00301631 0.107978 -0.0229083 0 0 0 0.0210657 -0.0323602 0.144533 0 -0.000164368 0 0 0 0 0 0 0 0 0 0 0 0 0 0 0 0 0 174 0.002 
674 1 0.00942568 0.107923 -0.0236131 0 0 0 -0.0443527 0.00915174 0.263936 0 -0.000164368 0 0 0 0 0 0 0 0 0 0 0 0 0 0 0 0 0 167 0.002 
2004 2 0.0180291 0.107917 -0.0237012 0 0 0 -0.0387122 -0.0455379 0.0798054 0 -0.000164368 0 0 0 0 0 0 0 0 0 0 0 0 0 0 0 0 0 18 0.002 
27 9 0.00432789 0.0813882 -0.0215908 0 0 0 0.452228 0.121194 -0.092016 0 -0.000164368 0 0 0 0 0 0 0 0 0 0 0 0 0 0 0 0 0 190 0.002 
985 3 0.0113024 0.090488 -0.0204125 0 0 0 0.201143 -0.0707037 -0.458101 0 -0.000164368 0 0 0 0 0 0 0 0 0 0 0 0 0 0 0 0 0 145 0.002 
2257 1 0.0152096 0.0931639 -0.0210753 0 0 0 -0.0828234 -0.586073 0.312922 -0.00240255 -0.00253871 -0.00204636 1 0 0 0 0 0 0 0 0 0 0 0 0 0 0 0 2 0.002 
235 8 0.0032686 0.0942653 -0.0211402 0 0 0 -0.0439034 -0.17806 0.0917921 0 -0.000164368 0 0 0 0 0 0 0 0 0 0 0 0 0 0 0 0 0 153 0.002 
727 1 0.0066923 0.096837 -0.0203935 0 0 0 0.00849633 -0.118113 0.135348 0 -0.000164368 0 0 0 0 0 0 0 0 0 0 0 0 0 0 0 0 0 167 0.002 
2311 10 0.0156671 0.0975247 -0.0201989 0 0 0 -0.108946 0.0362297 0.146901 0 -0.000164368 0 0 0 0 0 0 0 0 0 0 0 0 0 0 0 0 0 0 0.002 
1894 1 0.0106678 0.098546 -0.0205894 0 0 0 -0.0836138 -0.196992 0.328558 2.56571e-05 -0.00021533 -2.03732e-05 1 0 0 0 0 0 0 0 0 0 0 0 0 0 0 0 57 0.002 
2021 8 0.0130078 0.101858 -0.021643 0 0 0 -0.112088 -0.0673251 0.108163 0.00121107 -0.0014707 -0.000691988 0 0 0 0 0 1 1 1 0 0 0 0 0 0 0 0 72 0.002 
2202 4 0.00299675 0.104101 -0.0217672 0 0 0 0.0294368 -0.0401081 0.120288 -0.00205209 -0.000927896 -0.00152715 0 0 1 1 0 0 0 0 0 0 0 0 0 0 0 0 16 0.002 
961 3 0.0103948 0.104979 -0.0210749 0 0 0 0.0264792 -0.00562234 0.129429 0.0115894 0.000433068 0.00485635 0 0 0 0 0 0 0 0 0 0 0 0 0 0 0 0 125 0.002 
818 1 0.0158874 0.104769 -0.0217764 0 0 0 -0.0940646 -0.0670806 0.147707 0 -0.000164368 0 0 0 0 0 0 0 0 0 0 0 0 0 0 0 0 0 98 0.002 
1715 2 0.00654552 0.107754 -0.0206394 0 0 0 -0.015476 0.00632075 0.231974 0.0127038 -0.000508961 -0.00813906 0 1 0 0 0 0 0 0 0 0 0 0 0 0 0 0 69 0.002 
1895 1 0.0133409 0.107879 -0.0214416 0 0 0 -0.0698926 0.00999957 0.0932145 0 -0.000164368 0 0 0 0 0 0 0 0 0 0 0 0 0 0 0 0 0 66 0.002 
399 6 0.00406151 0.0787934 -0.0158716 0 0 0 2.87383 -0.811484 4.39594 0 -0.000164368 0 0 0 0 0 0 0 0 0 0 0 0 0 0 0 0 0 68 0.002 
2080 4 0.0101387 0.085719 -0.0190916 0 0 0 -0.170081 -0.56407 -2.22946 0 -0.000164368 0 0 0 0 0 0 0 0 0 0 0 0 0 0 0 0 0 64 0.002 
2006 7 0.00747681 0.0887741 -0.0186531 0 0 0 -0.119399 0.571813 -0.227215 0 -0.000164368 0 0 0 0 0 0 0 0 0 0 0 0 0 0 0 0 0 61 0.002 
1765 6 0.00301849 0.091172 -0.0184577 0 0 0 -0.0641737 -0.220877 -0.0587213 0.00114602 -0.00102137 -9.63905e-05 0 0 0 0 0 1 0 0 0 0 0 0 0 0 0 0 104 0.002 
514 4 0.0067656 0.0934587 -0.017848 0 0 0 0.102358 -0.0906751 0.352403 0 -0.000164368 0 0 0 0 0 0 0 0 0 0 0 0 0 0 0 0 0 133 0.002 
685 1 0.0117912 0.0944609 -0.019466 0 0 0 0.0418966 -0.167164 0.439716 0.00269272 -0.00168174 -0.00116227 1 0 0 0 0 0 0 0 0 0 0 0 0 0 0 0 155 0.002 
228 6 0.0180405 0.094405 -0.0185504 0 0 0 -0.162809 -0.220973 0.278792 -0.00501276 -0.00946504 -0.00972897 1 0 0 0 0 1 0 0 0 0 0 0 0 0 0 0 115 0.002 
651 3 0.00300954 0.0976502 -0.0190247 0 0 0 -0.10381 -0.159464 0.136505 0 -0.000164368 0 0 0 0 0 0 0 0 0 0 0 0 0 0 0 0 0 173 0.002 
170 3 0.00305902 0.10173 -0.0185518 0 0 0 0.0197146 -0.126465 0.0827515 0.000483392 -0.000698464 0.000763346 0 0 0 1 0 0 0 0 0 0 0 0 0 0 0 0 132 0.002 