ITEM: TIMESTEP
18800000
ITEM: NUMBER OF ATOMS
2273
ITEM: BOX BOUNDS ff ff ff
-0.01 0.45
-0.15 0.15
-0.08 0.1
ITEM: ATOMS id type x y z ix iy iz vx vy vz fx fy fz c_cc_1 c_cc_2 c_cc_3 c_cc_4 c_cc_5 c_cc_6 c_cc_7 c_cc_8 c_cc_9 c_cc_10 c_cc_11 c_cc_12 c_cc_13 c_cc_14 c_cc_15 c_cc_16 f_fppacc radius 
1698 1 0.00294403 -0.0539145 -0.0186145 0 0 0 -0.0658417 -6.99701 15.9316 0.217157 0.0496125 -0.0964963 0 0 0 0 0 0 0 0 0 0 0 0 0 0 0 0 97 0.002 
1719 3 0.0104152 -0.0403488 -0.0415734 0 0 0 0.487371 -14.044 12.8378 -0.0122335 0.503138 0.432554 0 0 0 0 0 0 0 0 0 0 0 0 0 0 0 0 89 0.002 
2162 7 0.00924074 -0.0218766 -0.0537338 0 0 0 0.584553 -17.0162 7.66797 0.0469775 0.330811 0.600709 0 0 0 0 0 0 0 0 0 0 0 0 0 0 0 0 28 0.002 
1082 4 0.0103141 -0.0071903 -0.0567078 0 0 0 0.269403 -18.7759 -5.23961 0 -0.000164368 0 0 0 0 0 0 0 0 0 0 0 0 0 0 0 0 0 146 0.002 
1827 4 0.00984978 -0.0339893 0.0467154 0 0 0 -16.8839 24.9124 16.6978 -0.0396741 -0.0385334 0.17164 0 0 0 0 0 0 0 0 0 0 0 0 0 0 0 0 79 0.002 
112 3 0.0150105 0.00326421 -0.0562273 0 0 0 0.039662 -4.14554 0.874405 0 -0.000164368 0 0 0 0 0 0 0 0 0 0 0 0 0 0 0 0 0 94 0.002 
2068 13 0.00370431 0.0344074 -0.0180429 0 0 0 0.0596664 -2.04241 0.868684 0 -0.000164368 0 0 0 0 0 0 0 0 0 0 0 0 0 0 0 0 0 50 0.002 
1391 1 0.00593097 0.0165037 -0.0323308 0 0 0 0.358339 -3.08098 -0.0449481 0 -0.000164368 0 0 0 0 0 0 0 0 0 0 0 0 0 0 0 0 0 107 0.002 
2141 8 0.0164307 0.0327445 -0.0232572 0 0 0 -0.467272 -5.42233 0.242706 0 -0.000164368 0 0 0 0 0 0 0 0 0 0 0 0 0 0 0 0 0 40 0.002 
2336 1 0.0171711 0.0281912 -0.0270109 0 0 0 0.470704 -1.56523 -0.624919 0 -0.000164368 0 0 0 0 0 0 0 0 0 0 0 0 0 0 0 0 0 0 0.002 
372 3 0.0165389 0.0323921 0.0171504 0 0 0 0.247593 1.25081 -3.55405 0 -0.000164368 0 0 0 0 0 0 0 0 0 0 0 0 0 0 0 0 0 186 0.002 
1292 4 0.0115894 0.011175 0.0568347 0 0 0 -21.2055 49.3163 -7.19294 0 -0.000164368 0 0 0 0 0 0 0 0 0 0 0 0 0 0 0 0 0 152 0.002 
1578 1 0.00715871 0.00152691 0.0578581 0 0 0 2.11692 15.0376 0.593921 0.16486 -0.00124455 -0.202758 0 0 0 0 0 0 0 0 0 0 0 0 0 0 0 0 93 0.002 
665 4 0.0179952 0.0512991 -0.035504 0 0 0 -1.87258e-12 -2.15979e-12 -2.03326e-13 4.2405e-13 4.55525e-13 0 0 0 0 2 0 0 0 0 0 0 0 0 0 0 0 0 276 0.002 
393 1 0.013745 0.0541008 -0.0355 0 0 0 2.22525e-308 -1.21775e-19 -1.11877e-12 -0 0 0 0 0 0 0 0 0 0 0 0 0 0 0 0 0 0 0 1 0.002 
1145 2 0.0126125 0.0650921 -0.0355 0 0 0 1.45232e-64 -3.04373e-19 2.80425e-12 -1.07866e-65 -1.35525e-20 0 0 0 0 0 0 0 0 0 0 0 0 0 0 0 0 0 4 0.002 
465 6 0.0169562 0.0642925 -0.0355038 0 0 0 2.65914e-15 1.26349e-16 1.96916e-12 -1.11022e-16 0 0 0 0 0 0 0 1 0 0 0 0 0 0 0 0 0 0 23 0.002 
1091 12 0.00582512 0.0487254 -0.0302956 0 0 0 0.259502 -0.528019 0.0397778 0 -0.000164368 0 0 0 0 0 0 0 0 0 0 0 0 0 0 0 0 0 127 0.002 
2078 3 0.0124898 0.0659686 -0.0290711 0 0 0 1.33128 1.28835 0.683997 0 -0.000164368 0 0 0 0 0 0 0 0 0 0 0 0 0 0 0 0 0 41 0.002 
764 3 0.00650258 0.0662291 -0.029532 0 0 0 0.0894012 -0.546889 0.597198 0 -0.000164368 0 0 0 0 0 0 0 0 0 0 0 0 0 0 0 0 0 151 0.002 
2347 6 0.00308032 0.0633474 -0.0266629 0 0 0 -1.8895 5.18748 -5.75794 -0.00350877 0.226252 -0.0661584 0 0 0 0 0 0 0 0 0 0 0 0 0 0 0 0 0 0.002 
1020 2 0.00404437 0.0707742 -0.0269294 0 0 0 -3.24892 1.73974 -17.5216 -0.327165 -0.88024 -0.829208 0 1 0 0 0 0 0 0 0 0 0 0 0 0 0 0 97 0.002 
1716 6 0.00366072 0.0604847 -0.024313 0 0 0 -0.752984 0.506065 -3.64537 0.0261116 -0.362687 0.210651 0 0 0 0 0 1 0 0 0 0 0 0 0 0 0 0 74 0.002 
1896 2 0.00523043 0.0382095 -0.0239546 0 0 0 -0.37188 -3.8089 -5.69552 0 -0.000164368 0 0 0 0 0 0 0 0 0 0 0 0 0 0 0 0 0 97 0.002 
1523 5 0.012792 0.0590071 -0.0223872 0 0 0 -1.47332 -0.609717 -2.11273 0 -0.000164368 0 0 0 0 0 0 0 0 0 0 0 0 0 0 0 0 0 112 0.002 
1904 6 0.00775452 0.064325 -0.0205045 0 0 0 1.26543 -1.65103 1.26899 0 -0.000164368 0 0 0 0 0 0 0 0 0 0 0 0 0 0 0 0 0 41 0.002 
1069 4 0.018047 0.0721089 -0.0232446 0 0 0 -0.0248377 0.197624 -5.33739 0 -0.000164368 0 0 0 0 0 0 0 0 0 0 0 0 0 0 0 0 0 170 0.002 
944 5 0.00596489 0.0489755 -0.0139666 0 0 0 -0.831971 -4.1567 3.22493 0 -0.000164368 0 0 0 0 0 0 0 0 0 0 0 0 0 0 0 0 0 176 0.002 
2020 4 0.00489304 0.05823 -0.0213638 0 0 0 0.860177 -12.4019 -8.06558 -0.0226028 0.135942 -0.144493 0 0 0 0 0 1 0 0 0 0 0 0 0 0 0 0 54 0.002 
2348 1 0.0163545 0.0575528 0.00192107 0 0 0 1.83344 0.706703 -2.6585 0 -0.000164368 0 0 0 0 0 0 0 0 0 0 0 0 0 0 0 0 0 0 0.002 
1777 5 0.00384878 0.0579276 -0.013041 0 0 0 0.723653 1.93852 -0.1513 0 -0.000164368 0 0 0 0 0 0 0 0 0 0 0 0 0 0 0 0 0 94 0.002 
439 2 0.0135849 0.0576047 -0.0131404 0 0 0 4.08851 -4.25583 -1.28947 0 -0.000164368 0 0 0 0 0 0 0 0 0 0 0 0 0 0 0 0 0 155 0.002 
59 1 0.00488341 0.0715408 -0.0236892 0 0 0 4.53371 -1.04045 -7.00864 0.327165 0.879911 0.829208 0 1 0 0 0 0 0 0 0 0 0 0 0 0 0 0 150 0.002 
1808 5 0.0142403 0.073124 -0.0119862 0 0 0 -0.068109 0.48123 -0.720704 0 -0.000164368 0 0 0 0 0 0 0 0 0 0 0 0 0 0 0 0 0 55 0.002 
1177 6 0.0106299 0.056956 -0.00911359 0 0 0 0.37343 -4.93334 -0.351616 0 -0.000164368 0 0 0 0 0 0 0 0 0 0 0 0 0 0 0 0 0 127 0.002 
945 4 0.00454857 0.0527771 -0.00155941 0 0 0 -4.14318 -2.30792 2.28305 0 -0.000164368 0 0 0 0 0 0 0 0 0 0 0 0 0 0 0 0 0 58 0.002 
1532 3 0.00342046 0.0630463 -0.00518123 0 0 0 0.964821 1.20066 -4.40796 0 -0.000164368 0 0 0 0 0 0 0 0 0 0 0 0 0 0 0 0 0 85 0.002 
1311 1 0.00888077 0.0742721 0.0111383 0 0 0 0.774612 0.623387 1.68138 0 -0.000164368 0 0 0 0 0 0 0 0 0 0 0 0 0 0 0 0 0 46 0.002 
1833 5 0.00343309 0.0741283 0.0134741 0 0 0 0.106425 -0.0473536 -0.273747 0 -0.000164368 0 0 0 0 0 0 0 0 0 0 0 0 0 0 0 0 0 84 0.002 
147 9 0.0180179 0.0729153 0.0135926 0 0 0 -0.476884 0.0966959 -0.888314 0 -0.000164368 0 0 0 0 0 0 0 0 0 0 0 0 0 0 0 0 0 149 0.002 
587 9 0.0181622 0.0609617 0.0140089 0 0 0 1.27531 1.86672 -3.87789 0 -0.000164368 0 0 0 0 0 0 0 0 0 0 0 0 0 0 0 0 0 229 0.002 
1863 1 0.0034708 0.0708305 0.0182224 0 0 0 0.115857 0.134238 -0.423363 0 -0.000164368 0 0 0 0 0 0 0 0 0 0 0 0 0 0 0 0 0 79 0.002 
899 1 0.00827172 0.0732586 0.0168769 0 0 0 0.728348 0.0372048 -0.187818 0 -0.000164368 0 0 0 0 0 0 0 0 0 0 0 0 0 0 0 0 0 170 0.002 
2046 5 0.0146904 0.0734592 0.0176791 0 0 0 -0.535039 -0.099238 -0.263901 0 -0.000164368 0 0 0 0 0 0 0 0 0 0 0 0 0 0 0 0 0 71 0.002 
1108 3 0.012378 0.0607957 0.020146 0 0 0 -1.78143 -1.45274 -0.057058 0 -0.000164368 0 0 0 0 0 0 0 0 0 0 0 0 0 0 0 0 0 152 0.002 
868 3 0.0114907 0.06901 0.0202443 0 0 0 -1.1534 0.285651 -0.319994 0 -0.000164368 0 0 0 0 0 0 0 0 0 0 0 0 0 0 0 0 0 162 0.002 
20 3 0.0172092 0.0704147 0.0193564 0 0 0 -0.29242 -0.174348 -0.64603 0 -0.000164368 0 0 0 0 0 0 0 0 0 0 0 0 0 0 0 0 0 59 0.002 
85 8 0.00967207 0.0729208 0.0206148 0 0 0 0.0895186 -0.27018 -0.114613 0 -0.000164368 0 0 0 0 0 0 0 0 0 0 0 0 0 0 0 0 0 209 0.002 
791 3 0.00321975 0.0616359 0.0227975 0 0 0 -0.00392182 -0.0559846 -1.03389 0 -0.000164368 0 0 0 0 0 0 0 0 0 0 0 0 0 0 0 0 0 159 0.002 
361 2 0.00496463 0.0677339 0.0227137 0 0 0 -0.0977586 0.0849747 -0.0487307 0 -0.000164368 0 0 0 0 0 0 0 0 0 0 0 0 0 0 0 0 0 176 0.002 
1683 4 0.00599498 0.0715804 0.0234314 0 0 0 -0.0347498 -0.149687 0.00959054 -0.00328046 2.62985e-05 -0.00329388 0 0 0 1 0 0 0 0 0 0 0 0 0 0 0 0 145 0.002 
1955 2 0.00303345 0.073566 0.0212802 0 0 0 0.0205013 -0.195852 0.0132126 0 -0.000164368 0 0 0 0 0 0 0 0 0 0 0 0 0 0 0 0 0 56 0.002 
814 6 0.0094064 0.0574711 0.0164557 0 0 0 2.73719 13.3896 -17.0721 0 -0.000164368 0 0 0 0 0 0 0 0 0 0 0 0 0 0 0 0 0 197 0.002 
1969 13 0.00964672 0.0617205 0.0257525 0 0 0 0.61553 0.0680293 0.108745 0 -0.000164368 0 0 0 0 0 0 0 0 0 0 0 0 0 0 0 0 0 84 0.002 
104 5 0.00655427 0.0647389 0.0248918 0 0 0 0.373833 0.0168765 -0.0139856 0.000402727 0.00201927 0.000693837 0 0 0 0 1 0 0 0 0 0 0 0 0 0 0 0 121 0.002 
1097 8 0.0104494 0.0665432 0.0247385 0 0 0 0.123781 0.3988 -0.493845 0 -0.000164368 0 0 0 0 0 0 0 0 0 0 0 0 0 0 0 0 0 183 0.002 
1481 1 0.00949437 0.071992 0.0253049 0 0 0 0.0239168 -0.0417586 -0.0921846 -0.000917095 -0.0119673 0.00639735 2 0 0 1 0 0 0 0 0 0 0 0 0 0 0 0 147 0.002 
2194 3 0.0135292 0.0717072 0.0235324 0 0 0 -0.054765 -0.0518121 -0.10579 0 -0.000164368 0 0 0 0 0 0 0 0 0 0 0 0 0 0 0 0 0 35 0.002 
1829 2 0.0176768 0.0715023 0.0251335 0 0 0 0.0663088 -0.0742767 -0.0939247 0 -0.000164368 0 0 0 0 0 0 0 0 0 0 0 0 0 0 0 0 0 73 0.002 
1541 1 0.00313337 0.0745497 0.0253082 0 0 0 -0.0555426 0.438865 0.222389 -0.00749107 -0.000204348 0.0162808 2 0 0 0 0 0 0 0 0 0 0 0 0 0 0 0 122 0.002 
2271 5 0.00356138 0.0609145 0.0276429 0 0 0 0.773218 0.463228 0.122508 -0.00314614 -0.0135647 -0.0372476 0 0 0 0 1 0 0 0 0 0 0 0 0 0 0 0 1 0.002 
2018 8 0.0157782 0.0649165 0.0259102 0 0 0 0.47845 -0.132164 0.133107 0 -0.000164368 0 0 0 0 0 0 0 0 0 0 0 0 0 0 0 0 0 63 0.002 
654 9 0.00302295 0.066707 0.0260806 0 0 0 0.0836997 0.0724116 -0.192527 0.00256725 -0.0112208 -0.00128812 0 0 0 0 0 0 0 0 2 0 0 0 0 0 0 0 201 0.002 
2158 8 0.00717107 0.0685026 0.0260978 0 0 0 -0.0292877 0.264054 0.154509 -0.000402727 -0.00234801 -0.000693837 0 0 0 0 1 0 0 0 0 0 0 0 0 0 0 0 35 0.002 
2133 7 0.0108542 0.0691495 0.0277708 0 0 0 0.000696676 -0.0814642 -0.118001 -0.00923791 -0.00985851 -0.0083756 0 0 0 0 0 0 1 0 0 0 0 0 0 0 0 0 44 0.002 
178 7 0.0148399 0.0688734 0.0262631 0 0 0 0.101722 -0.0796557 -0.211596 0 -0.000164368 0 0 0 0 0 0 0 0 0 0 0 0 0 0 0 0 0 191 0.002 
1667 1 0.00313786 0.0706741 0.0261369 0 0 0 -0.107935 0.277014 0.00894515 -0.00706793 -0.0130136 0.00426246 0 0 0 0 0 0 0 0 1 0 0 0 0 0 0 0 80 0.002 
1251 6 0.0178481 0.0550274 0.0280695 0 0 0 -0.498754 -0.458455 -0.301596 0 -0.000164368 0 0 0 0 0 0 0 0 0 0 0 0 0 0 0 0 0 165 0.002 
940 8 0.00529724 0.0570189 0.0286423 0 0 0 -0.915097 -1.21727 -2.35498 0 -0.000164368 0 0 0 0 0 0 0 0 0 0 0 0 0 0 0 0 0 184 0.002 
1653 5 0.0159191 0.0586075 0.0292156 0 0 0 -0.230922 -0.159814 -0.287192 0 -0.000164368 0 0 0 0 0 0 0 0 0 0 0 0 0 0 0 0 0 156 0.002 
1637 7 0.00688624 0.0630768 0.0287133 0 0 0 0.431134 0.414927 0.164681 -0.0550483 -0.117617 -0.0488509 0 0 0 0 0 0 1 0 0 0 0 0 0 0 0 0 116 0.002 
1157 1 0.012355 0.0611578 0.0287334 0 0 0 -0.173902 -0.138207 0.545242 0 -0.000164368 0 0 0 0 0 0 0 0 0 0 0 0 0 0 0 0 0 72 0.002 
865 7 0.0156068 0.0630035 0.0301623 0 0 0 0.208069 -0.112128 -0.162685 0 -0.000164368 0 0 0 0 0 0 0 0 0 0 0 0 0 0 0 0 0 171 0.002 
2101 3 0.00300288 0.0645197 0.0294153 0 0 0 0.0772353 0.820767 0.275798 -0.000109232 -0.0195758 -0.00286912 0 0 1 0 0 0 0 0 1 0 0 0 0 0 0 0 53 0.002 
2076 1 0.0125366 0.0653824 0.0285146 0 0 0 0.135198 0.200811 -0.121367 0 -0.000164368 0 0 0 0 0 0 0 0 0 0 0 0 0 0 0 0 0 68 0.002 
517 2 0.0084262 0.0664156 0.0300486 0 0 0 0.398286 0.55565 0.142537 0.0550483 0.117288 0.0488509 0 0 0 0 0 0 1 0 0 0 0 0 0 0 0 0 201 0.002 
1098 3 0.0181749 0.0667068 0.0289924 0 0 0 0.311035 0.080685 -0.0397675 -0.00956958 0.00481138 -0.00782521 0 0 0 0 0 0 0 0 0 0 0 0 0 0 0 0 151 0.002 
157 4 0.00518385 0.069174 0.0297284 0 0 0 -0.0984583 -0.095171 -0.168427 0 -0.000164368 0 0 0 0 0 0 0 0 0 0 0 0 0 0 0 0 0 73 0.002 
1535 4 0.0132841 0.0713637 0.0300122 0 0 0 0.0214418 -0.0872112 -0.0860351 0.00128778 0.000381014 -0.00303459 0 0 0 1 0 0 1 0 0 0 0 0 0 0 0 0 146 0.002 
1284 3 0.0171094 0.0705511 0.0291403 0 0 0 0.0281224 0.000248148 -0.0913258 -0.00211397 0.00155807 0.000205972 0 0 1 0 0 0 0 0 0 0 0 0 0 0 0 0 172 0.002 
1805 4 0.00299483 0.0732265 0.0292455 0 0 0 -0.0138779 0.133153 0.109902 0.0008262 -0.0017666 -0.00832283 0 0 0 1 0 0 0 0 0 0 0 0 0 0 0 0 102 0.002 
2126 3 0.0068839 0.0728064 0.0300255 0 0 0 -0.0183552 -0.0356032 -0.0174052 0.00429277 0.0033264 9.16465e-05 0 0 0 1 0 0 0 0 0 0 0 0 0 0 0 0 54 0.002 
1513 3 0.0104788 0.0738981 0.0286737 0 0 0 0.00432866 -0.13868 -0.0417997 0.00357576 0.00103394 0.000278436 1 0 1 0 0 0 0 0 0 0 0 0 0 0 0 0 111 0.002 
1912 1 0.00358128 0.0604676 0.0315876 0 0 0 0.473172 0.0222356 -0.0449404 0.00314614 0.013236 0.0372476 0 0 0 0 1 0 0 0 0 0 0 0 0 0 0 0 84 0.002 
1260 7 0.0121598 0.060445 0.0328187 0 0 0 0.555468 0.0907884 -0.0417087 0 -0.000164368 0 0 0 0 0 0 0 0 0 0 0 0 0 0 0 0 0 132 0.002 
998 6 0.00470648 0.0642008 0.0330195 0 0 0 0.0506185 0.121621 -0.0378648 -0.0173942 -0.00903321 -0.0249243 0 0 1 0 0 2 0 0 0 0 0 0 0 0 0 0 151 0.002 
1773 7 0.00863889 0.0635884 0.0329678 0 0 0 0.152714 -0.208365 0.000116971 0.00873194 0.00489059 -0.00247742 0 0 0 0 0 1 0 0 0 0 0 0 0 0 0 0 77 0.002 
273 2 0.0125313 0.0646535 0.0328068 0 0 0 -0.00461397 -0.217837 -0.0366762 0 -0.000164368 0 0 0 0 0 0 0 0 0 0 0 0 0 0 0 0 0 135 0.002 
1951 1 0.0169102 0.0655477 0.0329658 0 0 0 -0.0554608 -0.12408 0.0505168 0 -0.000164368 0 0 0 0 0 0 0 0 0 0 0 0 0 0 0 0 0 89 0.002 
1002 4 0.00323024 0.0678886 0.0330053 0 0 0 -0.0149376 -0.00220973 0.0418936 0.00687393 0.011026 -0.0107069 0 0 0 0 0 1 0 0 0 0 0 0 0 0 0 0 146 0.002 
1618 1 0.0119608 0.0686357 0.0327215 0 0 0 0.0464439 -0.189316 0.0495141 0 -0.000164368 0 0 0 0 0 0 0 0 0 0 0 0 0 0 0 0 0 89 0.002 
2063 1 0.0159197 0.0694302 0.0329182 0 0 0 0.0462905 -0.175598 -0.0304749 0 -0.000164368 0 0 0 0 0 0 0 0 0 0 0 0 0 0 0 0 0 39 0.002 
380 4 0.00393319 0.0718042 0.0328594 0 0 0 -0.0196421 -0.0562592 -0.150849 -0.00972862 -0.000694166 0.00682911 0 0 0 1 0 0 0 0 0 0 0 0 0 0 0 0 143 0.002 
1268 3 0.00837376 0.070433 0.0329986 0 0 0 0.0448089 -0.167886 -0.00185257 0 -0.000164368 0 0 0 0 0 0 0 0 0 0 0 0 0 0 0 0 0 81 0.002 
1462 2 0.00924617 0.0744394 0.0329758 0 0 0 0.0182089 -0.134201 0.0324555 0 -0.000164368 0 0 0 0 0 0 0 0 0 0 0 0 0 0 0 0 0 84 0.002 
1059 2 0.0144837 0.0736827 0.0330118 0 0 0 0.0646779 -0.0367948 -0.0566409 -0.000774554 0.000578159 0.00064531 0 2 0 1 0 0 0 0 0 0 0 0 0 0 0 0 141 0.002 
1910 2 0.00780343 0.0423689 0.0392844 0 0 0 -1.03023 9.99167 -12.4134 -0.00629078 0.0474157 0.00907352 0 0 0 0 0 0 0 0 0 0 0 0 0 0 0 0 66 0.002 
1981 1 0.0148215 0.0788822 -0.0323756 0 0 0 -0.339504 -0.456284 0.384115 0 -0.000164368 0 0 0 0 0 0 0 0 0 0 0 0 0 0 0 0 0 88 0.002 
905 3 0.00300157 0.0806266 -0.0329216 0 0 0 0.0425136 -0.463681 0.18871 0 -0.000164368 0 0 0 0 0 0 0 0 0 0 0 0 0 0 0 0 0 133 0.002 
704 3 0.00464479 0.0860503 -0.0328155 0 0 0 -0.0125138 -0.366648 -0.482722 0 -0.000164368 0 0 0 0 0 0 0 0 0 0 0 0 0 0 0 0 0 155 0.002 
1226 1 0.00898087 0.0840818 -0.0327254 0 0 0 0.30282 -0.704206 -0.41776 0 -0.000164368 0 0 0 0 0 0 0 0 0 0 0 0 0 0 0 0 0 137 0.002 
1743 6 0.0186861 0.088309 -0.0133334 0 0 0 -1.02333 0.47026 -1.30674 0 -0.000164368 0 0 0 0 0 0 0 0 0 0 0 0 0 0 0 0 0 83 0.002 
2108 9 0.00708287 0.0906073 -0.0328317 0 0 0 0.148979 -0.724877 -0.160967 0 -0.000164368 0 0 0 0 0 0 0 0 0 0 0 0 0 0 0 0 0 63 0.002 
1335 15 0.0140864 0.0925255 -0.0330248 0 0 0 0.122848 -0.21087 0.127738 0.00135139 0.0027327 -0.00689608 0 0 0 0 0 0 0 0 0 0 0 0 0 0 1 0 164 0.002 
1594 4 0.0179471 0.0935712 -0.0328325 0 0 0 0.220922 -0.191814 -0.0661277 -0.00367593 -0.000894027 0.00164403 0 0 0 1 0 0 0 0 0 0 0 0 0 0 0 0 65 0.002 
1445 3 0.00304986 0.0952415 -0.0329747 0 0 0 0.00584333 -0.152206 -0.0308222 0 -0.000164368 0 0 0 0 0 0 0 0 0 0 0 0 0 0 0 0 0 111 0.002 
1901 1 0.00705558 0.0955107 -0.032989 0 0 0 0.0560665 -0.206733 -0.279632 -0.0020332 -0.00168309 -0.0219551 1 0 0 0 0 0 0 0 0 0 0 0 0 0 0 0 72 0.002 
796 1 0.0109962 0.096739 -0.031711 0 0 0 0.139225 0.170403 -0.214184 0 -0.000164368 0 0 0 0 0 0 0 0 0 0 0 0 0 0 0 0 0 169 0.002 
476 2 0.0149987 0.0964513 -0.0326793 0 0 0 0.136671 -0.155848 0.0580712 0 -0.000164368 0 0 0 0 0 0 0 0 0 0 0 0 0 0 0 0 0 194 0.002 
1941 5 0.018731 0.097907 -0.0328405 0 0 0 0.112463 -0.0222044 0.042484 0 -0.000164368 0 0 0 0 0 0 0 0 0 0 0 0 0 0 0 0 0 68 0.002 
1958 12 0.0048507 0.0991719 -0.0329998 0 0 0 0.016164 -0.17494 0.0120626 0 -0.000164368 0 0 0 0 0 0 0 0 0 0 0 0 0 0 0 0 0 80 0.002 
520 1 0.00888038 0.100035 -0.0330064 0 0 0 -0.00974991 -0.0371322 0.013925 0.00333261 -0.000107241 0.0066662 0 0 0 0 0 0 0 0 0 0 0 0 0 0 0 0 173 0.002 
1680 3 0.0133052 0.100491 -0.0328903 0 0 0 0.0764669 -0.061836 0.0344124 0 -0.000164368 0 0 0 0 0 0 0 0 0 0 0 0 0 0 0 0 0 122 0.002 
58 4 0.0174907 0.102137 -0.0328788 0 0 0 0.0891723 -0.0638234 0.0457806 0 -0.000164368 0 0 0 0 0 0 0 0 0 0 0 0 0 0 0 0 0 157 0.002 
529 6 0.00302828 0.10405 -0.0329262 0 0 0 0.00869275 -0.0233965 0.0288795 0 -0.000164368 0 0 0 0 0 0 0 0 0 0 0 0 0 0 0 0 0 153 0.002 
241 1 0.0102685 0.103957 -0.03299 0 0 0 0.0355852 -0.0272615 0.00540602 0 -0.000164368 0 0 0 0 0 0 0 0 0 0 0 0 0 0 0 0 0 210 0.002 
1216 2 0.0143185 0.104238 -0.0316131 0 0 0 0.101464 -0.0283488 0.0195881 0 -0.000164368 0 0 0 0 0 0 0 0 0 0 0 0 0 0 0 0 0 72 0.002 
214 4 0.00710315 0.106895 -0.0329996 0 0 0 0.0546586 0.00348429 0.000945848 0 -0.000164368 0 0 0 0 0 0 0 0 0 0 0 0 0 0 0 0 0 186 0.002 
935 1 0.017049 0.10726 -0.0330108 0 0 0 0.0287086 0.138678 -0.00969152 0.0016817 -0.00177421 0.0185558 0 0 0 0 0 0 0 0 0 0 0 0 0 0 0 0 139 0.002 
1417 4 0.00307945 0.107917 -0.0318594 0 0 0 0.0182745 -0.00277822 -0.00277402 0 -0.000164368 0 0 0 0 0 0 0 0 0 0 0 0 0 0 0 0 0 82 0.002 
210 9 0.0113155 0.107814 -0.0328169 0 0 0 0.101864 -0.03595 0.0262479 0 -0.000164368 0 0 0 0 0 0 0 0 0 0 0 0 0 0 0 0 0 107 0.002 
2064 6 0.0049682 0.0808363 -0.0292861 0 0 0 -0.559849 -1.16309 -0.332739 -0.0587166 -0.0270493 -0.0957044 0 0 0 0 0 1 0 0 0 0 0 0 0 0 0 0 33 0.002 
1499 5 0.00952825 0.0886766 -0.0299405 0 0 0 0.793353 -0.470267 -0.0820146 0 -0.000164368 0 0 0 0 0 0 0 0 0 0 0 0 0 0 0 0 0 63 0.002 
121 8 0.00378566 0.0931159 -0.0296411 0 0 0 0.0472576 -0.293663 -0.100127 0 -0.000164368 0 0 0 0 0 0 0 0 0 0 0 0 0 0 0 0 0 176 0.002 
2115 3 0.0102894 0.0927961 -0.0316999 0 0 0 0.12663 0.0332891 -0.56425 0 -0.000164368 0 0 0 0 0 0 0 0 0 0 0 0 0 0 0 0 0 61 0.002 
2308 8 0.00729806 0.0997425 -0.0293267 0 0 0 0.112254 -0.0470154 0.0448441 0 -0.000164368 0 0 0 0 0 0 0 0 0 0 0 0 0 0 0 0 0 8 0.002 
197 4 0.00310464 0.100798 -0.0297363 0 0 0 0.0228802 -0.175141 0.0321182 0 -0.000164368 0 0 0 0 0 0 0 0 0 0 0 0 0 0 0 0 0 147 0.002 
2296 9 0.0155904 0.100948 -0.0295502 0 0 0 -0.0659946 0.0265217 -0.00928032 0 -0.000164368 0 0 0 0 0 0 0 0 0 0 0 0 0 0 0 0 0 10 0.002 
1308 1 0.00667575 0.103246 -0.0313375 0 0 0 0.0352994 0.00321686 0.0352767 0 -0.000164368 0 0 0 0 0 0 0 0 0 0 0 0 0 0 0 0 0 120 0.002 
1554 1 0.0182713 0.103979 -0.0293042 0 0 0 -0.0109773 0.131712 0.0193093 -0.00150087 0.00145802 0.00131534 1 0 0 0 0 0 0 0 0 0 0 0 0 0 0 0 105 0.002 
1495 4 0.0141663 0.107962 -0.0300029 0 0 0 0.124011 -0.0241052 0.0434515 0 -0.000164368 0 0 0 0 0 0 0 0 0 0 0 0 0 0 0 0 0 109 0.002 
1352 5 0.0052271 0.0870703 -0.0284493 0 0 0 -0.0835382 0.0269803 -0.0214001 0 -0.000164368 0 0 0 0 0 0 0 0 0 0 0 0 0 0 0 0 0 106 0.002 
2310 7 0.00894855 0.0922939 -0.0275936 0 0 0 -0.0297634 -0.286813 -0.116428 0 -0.000164368 0 0 0 0 0 0 0 0 0 0 0 0 0 0 0 0 0 0 0.002 
1465 8 0.0134698 0.0934132 -0.0292123 0 0 0 0.400962 -0.17232 -0.0316292 -0.00334911 0.00417965 0.0515618 0 0 0 0 0 0 0 0 0 0 0 0 0 0 1 0 110 0.002 
2344 1 0.0169324 0.0923106 -0.0272418 0 0 0 0.0657492 -0.326727 0.272425 0 -0.000164368 0 0 0 0 0 0 0 0 0 0 0 0 0 0 0 0 0 0 0.002 
708 2 0.00699361 0.0956871 -0.0290206 0 0 0 0.0298302 -0.048918 -0.232735 0.0061411 0.00140415 0.016198 1 1 0 0 0 0 0 0 0 0 0 0 0 0 0 0 162 0.002 
1987 8 0.0157632 0.0967068 -0.0281146 0 0 0 -0.0469178 0.0970679 -0.362036 -0.00634674 0.00370678 0.00197982 0 0 0 0 0 0 0 0 0 0 0 0 0 0 0 0 55 0.002 
1662 8 0.012025 0.0990422 -0.0285538 0 0 0 0.0869979 -0.0943747 -0.0398131 0 -0.000164368 0 0 0 0 0 0 0 0 0 0 0 0 0 0 0 0 0 77 0.002 
826 1 0.0100771 0.103041 -0.0290975 0 0 0 0.0263207 0.022928 0.0189333 0 -0.000164368 0 0 0 0 0 0 0 0 0 0 0 0 0 0 0 0 0 138 0.002 
1913 2 0.00311189 0.10492 -0.02881 0 0 0 0.0270327 -0.0952717 0.0267683 0 -0.000164368 0 0 0 0 0 0 0 0 0 0 0 0 0 0 0 0 0 59 0.002 
602 8 0.00653538 0.10351 -0.0272942 0 0 0 0.0573974 0.0659214 0.0630066 0 -0.000164368 0 0 0 0 0 0 0 0 0 0 0 0 0 0 0 0 0 208 0.002 
1956 4 0.0133322 0.104818 -0.0275531 0 0 0 0.0906608 -0.0662871 0.0806265 0 -0.000164368 0 0 0 0 0 0 0 0 0 0 0 0 0 0 0 0 0 50 0.002 
1654 7 0.00687863 0.10798 -0.0291516 0 0 0 0.0790974 -0.0208117 0.013101 0 -0.000164368 0 0 0 0 0 0 0 0 0 0 0 0 0 0 0 0 0 91 0.002 
1418 5 0.0108913 0.107988 -0.0275742 0 0 0 0.145019 -0.0133739 0.0170307 0 -0.000164368 0 0 0 0 0 0 0 0 0 0 0 0 0 0 0 0 0 111 0.002 
1973 9 0.0182863 0.108003 -0.0288225 0 0 0 0.0302537 -0.0204581 0.0131666 -7.65277e-05 -0.000820212 0.000629817 0 0 0 0 0 0 0 0 0 0 0 0 0 0 0 0 45 0.002 
333 2 0.0101155 0.076882 -0.0266737 0 0 0 -2.16883 -1.00189 0.475255 0 -0.000164368 0 0 0 0 0 0 0 0 0 0 0 0 0 0 0 0 0 135 0.002 
2144 4 0.00735775 0.0816253 -0.0262651 0 0 0 0.198353 -1.33195 -1.17845 0.034499 0.0125494 0.0827199 0 0 0 1 0 1 0 0 0 0 0 0 0 0 0 0 46 0.002 
1847 9 0.0162545 0.0824269 -0.0264558 0 0 0 -0.226894 -0.913308 0.444228 0 -0.000164368 0 0 0 0 0 0 0 0 0 0 0 0 0 0 0 0 0 87 0.002 
792 2 0.0163489 0.0873163 -0.0264025 0 0 0 0.529678 -0.126445 -0.128676 -0.0300154 0.00783657 -0.0251318 0 0 0 0 0 0 0 0 0 0 0 0 0 0 0 0 157 0.002 
29 5 0.00300502 0.0910444 -0.0262365 0 0 0 -0.191933 0.0131143 -0.299611 0.00324636 0.00293596 -0.00803054 0 0 0 0 1 0 0 0 0 0 0 0 0 0 0 0 176 0.002 
2093 7 0.00610538 0.095215 -0.0251644 0 0 0 0.101631 0.0234169 -0.132097 -0.00348156 -0.00500665 0.0117677 0 1 0 0 0 0 3 0 0 0 0 0 0 0 0 0 69 0.002 
1388 4 0.0126868 0.0954874 -0.0257518 0 0 0 -1.00951 0.803678 -0.759552 0 -0.000164368 0 0 0 0 0 0 0 0 0 0 0 0 0 0 0 0 0 162 0.002 
983 12 0.00298843 0.0971783 -0.026677 0 0 0 0.0693787 0.0470876 -0.062956 -0.00154856 -0.000531054 0.00254179 0 0 0 0 0 0 1 0 0 0 0 0 0 0 0 0 161 0.002 
1090 6 0.009058 0.0977768 -0.0259452 0 0 0 -0.0958744 0.0507603 -0.117829 0.0127811 0.00516376 -0.00813269 0 0 0 0 0 0 1 0 0 0 0 0 0 0 0 0 131 0.002 
2119 1 0.00303954 0.102093 -0.0259213 0 0 0 0.0175425 0.105756 -0.0347652 0 -0.000164368 0 0 0 0 0 0 0 0 0 0 0 0 0 0 0 0 0 53 0.002 
1943 1 0.0102799 0.102375 -0.0251446 0 0 0 0.0962216 0.0519682 0.0348749 0.00119287 -0.000769789 -0.000562471 1 0 0 0 0 0 0 0 0 0 0 0 0 0 0 0 68 0.002 
1056 1 0.0143095 0.100992 -0.0255717 0 0 0 0.145126 -0.18455 0.0800429 0 -0.000164368 0 0 0 0 0 0 0 0 0 0 0 0 0 0 0 0 0 124 0.002 
1166 7 0.0166781 0.104308 -0.0253754 0 0 0 0.0263643 -0.109554 0.201797 0 -0.000164368 0 0 0 0 0 0 0 0 0 0 0 0 0 0 0 0 0 165 0.002 
168 2 0.00768323 0.106857 -0.0253849 0 0 0 0.121671 0.0778513 0.0471542 0 -0.000164368 0 0 0 0 0 0 0 0 0 0 0 0 0 0 0 0 0 126 0.002 
1665 2 0.00378003 0.107963 -0.0257249 0 0 0 0.0620441 -0.0126154 0.0744111 0 -0.000164368 0 0 0 0 0 0 0 0 0 0 0 0 0 0 0 0 0 99 0.002 
1122 3 0.0146528 0.107885 -0.0253361 0 0 0 0.0501097 -0.02786 0.0835215 0 -0.000164368 0 0 0 0 0 0 0 0 0 0 0 0 0 0 0 0 0 115 0.002 
2112 2 0.00323827 0.0834514 -0.0233173 0 0 0 -0.459006 -0.19188 -1.35944 0 -0.000164368 0 0 0 0 0 0 0 0 0 0 0 0 0 0 0 0 0 58 0.002 
1569 2 0.0186485 0.0848737 -0.0242857 0 0 0 0.201741 -0.381257 -0.129639 0.0300154 -0.00816531 0.0251318 0 0 0 0 0 0 0 0 0 0 0 0 0 0 0 0 107 0.002 
2318 7 0.00343465 0.0877867 -0.0239974 0 0 0 0.152694 -0.324768 -0.402872 -0.028774 0.0278478 -0.0129667 0 0 0 0 1 0 1 0 0 0 0 0 0 0 0 0 2 0.002 
542 6 0.00658466 0.0901563 -0.023311 0 0 0 0.0235784 -0.00567404 -0.386168 -0.000124662 0.000184627 0.000235647 0 0 0 0 0 0 0 0 0 0 0 0 0 0 0 0 135 0.002 
1645 1 0.0105118 0.0897061 -0.0247995 0 0 0 -0.15658 -0.69007 -0.502086 0 -0.000164368 0 0 0 0 0 0 0 0 0 0 0 0 0 0 0 0 0 110 0.002 
1047 3 0.015427 0.0904054 -0.0239701 0 0 0 0.18208 -0.229768 -0.119549 0 -0.000164368 0 0 0 0 0 0 0 0 0 0 0 0 0 0 0 0 0 115 0.002 
1765 6 0.00326935 0.096578 -0.0225515 0 0 0 0.0660167 -0.126184 -0.0486244 0 -0.000164368 0 0 0 0 0 0 0 0 0 0 0 0 0 0 0 0 0 106 0.002 
527 2 0.0159975 0.0976921 -0.0240221 0 0 0 -0.0828618 0.00106366 -0.201793 0 -0.000164368 0 0 0 0 0 0 0 0 0 0 0 0 0 0 0 0 0 185 0.002 
1049 6 0.00666392 0.100639 -0.0245099 0 0 0 0.0485121 0.10954 0.0856142 0.000375577 -9.15596e-06 -0.000703156 0 0 0 0 0 0 0 0 0 0 0 0 0 0 0 0 140 0.002 
804 4 0.00441999 0.104832 -0.0232655 0 0 0 0.0866197 0.0387683 0.042834 -0.000534868 0.000183823 -5.9282e-05 0 0 0 1 0 0 0 0 0 0 0 0 0 0 0 0 126 0.002 
1582 8 0.00826131 0.104321 -0.022295 0 0 0 0.118778 -0.00433498 0.0568651 -0.000658007 9.28615e-05 0.000621753 1 0 0 1 0 0 0 0 0 0 0 0 0 0 0 0 110 0.002 
429 8 0.0127315 0.104355 -0.022355 0 0 0 0.150685 0.0798161 0.0561159 0 -0.000164368 0 0 0 0 0 0 0 0 0 0 0 0 0 0 0 0 0 95 0.002 
2216 2 0.0109558 0.107935 -0.0229566 0 0 0 0.110002 -0.00769576 0.110957 0 -0.000164368 0 0 0 0 0 0 0 0 0 0 0 0 0 0 0 0 0 15 0.002 
937 2 0.0185747 0.107974 -0.0245304 0 0 0 0.0727969 -0.0057119 0.0291347 0 -0.000164368 0 0 0 0 0 0 0 0 0 0 0 0 0 0 0 0 0 152 0.002 
143 8 0.00908879 0.0837935 -0.0234652 0 0 0 1.13567 1.88952 -3.18153 0.0242177 0.0140068 0.0129845 0 0 0 1 0 0 0 0 0 0 0 0 0 0 0 0 165 0.002 
965 2 0.017015 0.0817694 -0.0211236 0 0 0 0.2424 -1.10493 -0.30545 0 -0.000164368 0 0 0 0 0 0 0 0 0 0 0 0 0 0 0 0 0 152 0.002 
2305 8 0.00960879 0.0875207 -0.0213113 0 0 0 0.00618297 -0.231619 -0.604245 0.0629198 0.0837331 -0.0612829 0 0 0 0 0 0 0 1 0 0 0 0 0 0 0 0 1 0.002 
1759 3 0.0135931 0.08733 -0.0220298 0 0 0 -0.233092 -0.426895 -0.435104 0 -0.000164368 0 0 0 0 0 0 0 0 0 0 0 0 0 0 0 0 0 94 0.002 
696 2 0.0187151 0.0881734 -0.0219116 0 0 0 0.304224 -0.109735 -0.710273 0.110087 0.032923 -0.0942862 0 1 0 0 0 0 0 0 0 0 0 0 0 0 0 0 141 0.002 
339 6 0.0071843 0.0937284 -0.0216228 0 0 0 -0.374804 -0.0687451 0.00957574 -0.00926511 -0.00477906 -0.00383651 0 0 0 0 0 2 1 0 0 0 0 0 0 0 0 0 199 0.002 
190 5 0.010578 0.0921538 -0.0202487 0 0 0 -0.44111 -0.183114 -0.01125 0.00944571 0.000762112 0.00551316 0 0 0 0 1 1 0 0 0 0 0 0 0 0 0 0 164 0.002 
306 5 0.0165352 0.0924172 -0.0205869 0 0 0 -0.449307 1.11891 -0.805222 0 -0.000164368 0 0 0 0 0 0 0 0 0 0 0 0 0 0 0 0 0 197 0.002 
771 4 0.0132493 0.095252 -0.0217336 0 0 0 -0.682283 1.16107 -0.774689 0 -0.000164368 0 0 0 0 0 0 0 0 0 0 0 0 0 0 0 0 0 161 0.002 
1568 8 0.00782458 0.0977201 -0.0220216 0 0 0 -0.480209 0.278591 -0.127034 -0.0154338 0.00849004 -0.00568552 0 0 0 0 0 0 0 1 0 0 0 0 0 0 0 0 114 0.002 
734 1 0.00301978 0.100684 -0.0214799 0 0 0 0.00567297 -0.0846773 0.0821567 3.30292e-06 -0.000112103 -9.51097e-05 1 0 0 0 0 0 0 0 0 0 0 0 0 0 0 0 138 0.002 
852 7 0.0111917 0.0999358 -0.0220619 0 0 0 -0.00494532 -0.024725 0.0292501 -0.00168218 0.00226442 -0.00223455 0 0 0 0 0 0 1 0 0 0 0 0 0 0 0 0 162 0.002 
1885 9 0.00694699 0.101148 -0.0201482 0 0 0 0.0279678 -0.0234797 0.00906539 0.000193049 -0.000250154 9.44199e-05 0 0 0 0 0 0 0 0 2 0 0 0 0 0 0 0 106 0.002 
631 2 0.0150948 0.101188 -0.0216218 0 0 0 0.067632 -0.0470084 0.00061206 -0.000350078 0.00592099 0.00595004 0 1 0 0 0 0 0 0 0 0 0 0 0 0 0 0 194 0.002 
1756 5 0.0158221 0.106918 -0.0212572 0 0 0 0.0333738 -0.0198795 0.0727242 -0.000645957 -0.00532771 -0.00560182 0 0 0 0 1 0 0 0 0 0 0 0 0 0 0 0 97 0.002 
962 1 0.00651504 0.107955 -0.0217024 0 0 0 0.019881 -0.0324688 0.0239587 0 -0.000164368 0 0 0 0 0 0 0 0 0 0 0 0 0 0 0 0 0 151 0.002 
1506 7 0.00300157 0.0810053 -0.0201314 0 0 0 0.184301 2.54325 -2.67816 0 -0.000164368 0 0 0 0 0 0 0 0 0 0 0 0 0 0 0 0 0 93 0.002 
1070 2 0.0130384 0.0817906 -0.0191717 0 0 0 0.414159 -0.617517 -1.24436 -0.0312155 -0.0428537 -0.133616 0 1 0 0 0 0 0 0 0 0 0 0 0 0 0 0 125 0.002 
925 7 0.00654584 0.0862852 -0.0191569 0 0 0 0.115568 0.194672 -1.13232 -0.0629198 -0.0840619 0.0612829 0 0 0 0 0 0 0 1 0 0 0 0 0 0 0 0 170 0.002 
647 2 0.00299624 0.0879156 -0.0200257 0 0 0 -0.00399627 0.214942 -1.01574 0.0294777 -0.0320052 0.0228331 0 0 0 0 0 0 1 0 0 0 0 0 0 0 0 0 167 0.002 
670 1 0.0162684 0.0871306 -0.0190559 0 0 0 0.153322 0.317655 -0.268182 -0.110087 -0.0332518 0.0942862 0 1 0 0 0 0 0 0 0 0 0 0 0 0 0 0 190 0.002 
2090 4 0.00549571 0.0919683 -0.0184561 0 0 0 -0.232316 0.00632872 0.136401 -0.000485754 -0.000229318 0.000476917 0 0 0 0 0 1 0 0 0 0 0 0 0 0 0 0 40 0.002 
1194 8 0.0029961 0.0950676 -0.0188424 0 0 0 -0.124139 0.0576683 -0.0443064 0.0137409 -0.0089749 -0.00509405 0 0 0 0 0 0 0 0 0 0 0 0 0 0 0 0 157 0.002 
1862 7 0.00588988 0.0978051 -0.0181999 0 0 0 -0.0143803 -0.0125873 0.0276991 0 -0.000164368 0 0 0 0 0 0 0 0 0 0 0 0 0 0 0 0 0 63 0.002 
1968 4 0.0102098 0.0961705 -0.0192564 0 0 0 -0.668572 0.191809 0.40474 0.0154338 -0.00881877 0.00568552 0 0 0 0 0 0 0 1 0 0 0 0 0 0 0 0 84 0.002 
1058 3 0.0169963 0.0976719 -0.0197385 0 0 0 -0.12145 0.0818975 -0.0292576 -0.0316522 0.0542401 0.00629322 0 0 3 0 0 0 0 0 0 0 0 0 0 0 0 0 157 0.002 
987 4 0.013318 0.0989295 -0.0188334 0 0 0 0.0121545 -0.120689 -0.0510021 -0.0100291 0.00581225 -0.00279696 0 0 1 1 0 0 1 0 0 0 0 0 0 0 0 0 144 0.002 
2080 4 0.0105062 0.102775 -0.0193214 0 0 0 0.0195778 0.00375903 0.0300251 -7.31314e-05 -0.000253407 -4.46208e-05 0 0 0 0 0 0 0 0 1 0 0 0 0 0 0 0 68 0.002 
813 1 0.0162104 0.101726 -0.017819 0 0 0 0.0624972 -0.142232 0.0324006 4.8815e-05 -0.00028893 -0.00082707 1 1 0 0 0 0 0 0 0 0 0 0 0 0 0 0 174 0.002 
930 3 0.00419365 0.103939 -0.0193608 0 0 0 0.017503 -0.0443864 0.0577814 -0.000119918 1.04563e-05 -4.97991e-05 0 0 0 0 0 0 0 0 1 0 0 0 0 0 0 0 160 0.002 
1570 7 0.0136619 0.10485 -0.0179519 0 0 0 0.11928 -0.0862557 0.00571085 0 -0.000164368 0 0 0 0 0 0 0 0 0 0 0 0 0 0 0 0 0 118 0.002 
606 1 0.00777223 0.105723 -0.01857 0 0 0 0.0453817 0.00163964 0.0741271 0 -0.000164368 0 0 0 0 0 0 0 0 0 0 0 0 0 0 0 0 0 179 0.002 
948 4 0.00302911 0.107854 -0.0196225 0 0 0 -0.0455325 -0.0572022 -0.0167712 0 -0.000164368 0 0 0 0 0 0 0 0 0 0 0 0 0 0 0 0 0 161 0.002 
795 6 0.0112316 0.10796 -0.0189629 0 0 0 0.0907823 -0.0188522 0.10507 0 -0.000164368 0 0 0 0 0 0 0 0 0 0 0 0 0 0 0 0 0 111 0.002 
2343 4 0.00665371 0.0785837 -0.0203961 0 0 0 4.02731 3.23663 -6.63336 0 -0.000164368 0 0 0 0 0 0 0 0 0 0 0 0 0 0 0 0 0 0 0.002 
2075 1 0.00770963 0.081849 -0.0182459 0 0 0 2.09974 0.450621 -3.53466 0.332414 0.107462 -0.479906 1 0 0 0 0 0 0 0 0 0 0 0 0 0 0 0 43 0.002 
251 5 0.00321185 0.0868592 -0.0159865 0 0 0 -0.411945 0.875795 -0.173525 0 -0.000164368 0 0 0 0 0 0 0 0 0 0 0 0 0 0 0 0 0 216 0.002 
589 16 0.0101961 0.0853629 -0.0177597 0 0 0 0.446724 0.670377 -1.50866 0.0042134 0.00651433 -0.000381168 0 0 0 0 0 0 0 0 0 0 0 0 0 0 0 1 193 0.002 
1139 3 0.00817931 0.0892973 -0.0170897 0 0 0 -0.178769 -0.0146666 -0.0625837 0 -0.000164368 0 0 0 0 0 0 0 0 0 0 0 0 0 0 0 0 0 156 0.002 