ITEM: TIMESTEP
18950000
ITEM: NUMBER OF ENTRIES
520
ITEM: BOX BOUNDS ff ff ff
-0.01 0.45
-0.15 0.15
-0.08 0.1
ITEM: ENTRIES c_pwc[1] c_pwc[2] c_pwc[3] c_pwc[4] c_pwc[5] c_pwc[6] c_pwc[7] c_pwc[8] c_pwc[9] c_pwc[10] c_pwc[11] c_pwc[12] c_pwc[13] c_pwc[14] 
0 0 0 -0.160622 -10.4856 6.16827 0 926 1819 -0.0181605 0.218504 0.295016 5.84063e-07 4.70313e-05 
0 0 0 -5.05148 30.8436 -7.55958 0 956 581 0.159856 -0.449733 -1.14329 1.91628e-06 0.000158797 
0 0 0 2.97926e-85 2.63884e-19 5.56991e-13 0 850 393 1.947e-83 8.21841e-05 28.6382 1.1781e-05 0.0015 
0 0 0 -4.26027e-09 -1.99486e-07 2.70149e-07 0 850 1145 -2.31437e-07 8.23638e-05 28.6382 1.1781e-05 0.0015 
0 0 0 1.12697e-15 -1.11149e-15 1.68485e-12 0 850 465 0.918915 0.249214 28.7467 1.17928e-05 0.00150379 
0 0 0 -1.34237e-15 -3.71047e-15 4.57797e-14 0 850 665 0.311381 0.82803 28.7511 1.17933e-05 0.00150394 
0 0 0 2.97926e-85 2.63884e-19 5.56991e-13 0 885 393 -1.93827e-83 8.21841e-05 -28.6382 1.1781e-05 0.0015 
0 0 0 1.12697e-15 -1.11149e-15 1.68485e-12 0 885 465 0.622744 0.168917 -28.5298 1.1769e-05 0.00149621 
0 0 0 -1.34237e-15 -3.71047e-15 4.57797e-14 0 885 665 0.236299 0.511636 -28.5254 1.17685e-05 0.00149606 
0 0 0 -4.26027e-09 -1.99486e-07 2.70149e-07 0 884 1145 6.0211e-07 8.27823e-05 -28.6382 1.1781e-05 0.0015 
0 0 0 -0.513945 -0.245762 -0.214525 0 854 2353 0.0559612 0.101758 0.0391781 8.52926e-08 6.79893e-06 
0 0 0 0.00227488 -0.151492 -3.06851e-05 0 855 1929 0.000604202 0.000289832 8.52188e-05 1.65111e-08 1.31434e-06 
0 0 0 -0.129942 -0.0677776 0.11426 0 894 300 0.0125775 0.00409883 -0.0111978 3.81731e-08 3.04003e-06 
0 0 0 -0.0153413 -0.110238 -0.0169423 0 894 854 -0.000196018 8.05441e-05 0.000281197 1.66687e-08 1.3269e-06 
0 0 0 0.027074 0.0409114 -0.00349253 0 884 529 1.86337e-05 3.65288e-05 0.00069634 1.26372e-08 1.00589e-06 
0 0 0 -0.276544 -0.00812082 -0.00579139 0 884 814 0.0104289 0.000740051 0.0209102 1.49396e-07 1.19241e-05 
0 0 0 -0.0166703 0.0497034 -0.0029154 0 884 214 -0.000347785 -0.00027337 0.00106066 1.84578e-08 1.46936e-06 
0 0 0 0.0993108 -0.676748 0.38996 0 884 288 -0.0090937 -0.0150937 0.0556654 4.58995e-07 3.68654e-05 
0 0 0 -0.305247 0.0835604 -0.000639388 0 884 1082 0.00255087 -0.00151045 0.00592904 6.54731e-08 5.21699e-06 
0 0 0 -0.033066 -0.0378861 0.00282853 0 884 1680 0.00473072 0.00234004 0.00269793 4.10529e-08 3.26956e-06 
0 0 0 -0.0435155 -0.0504926 -0.033789 0 884 1335 -0.00129325 -0.000702711 0.00294368 1.79459e-08 1.4286e-06 
0 0 0 0.0980947 0.274321 0.257258 0 854 1611 0.0312744 -0.000884175 0.00634998 2.46063e-07 1.96779e-05 
0 0 0 -0.155338 0.602757 -0.300071 0 854 20 0.0874337 -0.0363488 0.0242885 3.31211e-07 2.6533e-05 
0 0 0 0.0020725 -0.145754 0.108071 0 854 1293 0.00109286 0.000260449 -0.000480367 2.31094e-08 1.83984e-06 
0 0 0 -0.0202639 0.0187156 0.0143554 0 854 1226 0.00830445 -0.00282366 0.00304432 7.02598e-08 5.59893e-06 
0 0 0 0.0390086 -0.0285443 -0.00821512 0 854 531 0.0212202 0.00771144 -0.00940805 1.73877e-07 1.38849e-05 
0 0 0 0.00691789 0.029021 -0.0168945 0 854 2318 0.0107015 -0.00217409 0.000258894 1.0159e-07 8.10069e-06 
0 0 0 -0.0414209 -0.0181519 0.0160048 0 854 2332 0.000985293 0.00491662 0.000152232 3.79791e-10 3.0223e-08 
0 0 0 -0.19922 0.0439897 -0.211976 0 854 2059 0.0155022 -0.0110182 0.0217717 2.80461e-08 2.23308e-06 
0 0 0 0.0169535 0.0424874 0.0786764 0 854 315 0.0217953 -9.41068e-05 0.00342034 1.65295e-07 1.31973e-05 
0 0 0 -0.214946 0.261816 0.0533485 0 854 647 0.0322798 -0.0126156 -0.016512 1.02869e-07 8.20286e-06 
0 0 0 -0.0895573 0.0451643 -0.3157 0 854 1363 0.0100878 -0.00123251 0.00489101 4.32088e-08 3.44141e-06 
0 0 0 -0.0133187 -0.017183 -0.00587589 0 854 1445 0.00154474 0.00122974 -7.36348e-05 1.63919e-08 1.30485e-06 
0 0 0 -0.0254994 0.042242 0.1264 0 854 869 0.00747397 -0.00259057 -0.00269333 6.12724e-08 4.88186e-06 
0 0 0 -0.0163392 0.059693 0.0066882 0 854 197 0.00289769 -0.000741922 0.00124447 2.92204e-08 2.32664e-06 
0 0 0 0.0123295 -0.0201524 0.0413006 0 854 170 -0.000206599 0.000102359 -1.39051e-05 1.26077e-08 1.00354e-06 
0 0 0 0.0327635 0.0190416 0.000247316 0 853 1418 0.00143939 -0.00297135 0.000367969 2.80647e-08 2.23457e-06 
0 0 0 -0.0525016 -0.00834476 0.0640982 0 853 1122 0.00157653 -0.000435059 -0.00219129 1.9674e-08 1.56622e-06 
0 0 0 0.0176604 -0.0676313 -0.0104003 0 852 1665 -0.000374034 -0.025595 0.00152154 2.07832e-07 1.66077e-05 
0 0 0 -0.00392552 0.0170442 0.0794732 0 852 2202 0.0013656 -0.0154337 0.0018976 1.15283e-07 9.19508e-06 
0 0 0 -0.0717569 -0.00216212 0.172149 0 852 2212 0.000501553 -0.00266675 -0.00123545 4.02706e-08 3.20721e-06 
0 0 0 0.0231398 -0.0423037 0.230517 0 852 86 0.00609545 -0.0275525 -0.00417101 2.03776e-07 1.62823e-05 
0 0 0 0.0122926 -0.0108716 0.0805994 0 852 1864 0.000265172 -0.00123779 -0.000559207 3.2162e-08 2.56101e-06 
0 0 0 -0.049519 -0.00559136 0.0322454 0 852 962 -0.0046791 -0.00977542 -0.0014127 9.51703e-08 7.58781e-06 
0 0 0 0.0598276 0.00508615 0.0520669 0 852 606 -0.00175886 -0.00525966 0.00195511 5.75233e-08 4.58281e-06 
0 0 0 -0.0784212 -0.0429265 0.0377462 0 852 2216 -0.000247297 0.00183376 7.69948e-05 1.779e-08 1.41618e-06 
0 0 0 -0.012033 0.0288479 0.11202 0 852 294 0.00211157 -0.010192 -0.00373545 7.77366e-08 6.19568e-06 
0 0 0 -0.0147618 -0.00197798 0.0530156 0 852 1877 0.00121641 -0.00641762 -0.000375336 7.06903e-08 5.63329e-06 
0 0 0 -0.0202048 -0.101035 -0.00140405 0 894 1474 0.000204704 0.000309573 -0.000742266 1.77702e-08 1.4146e-06 
0 0 0 0.00767066 -0.0880149 0.00451025 0 894 346 -0.00122313 0.000581994 -0.00403865 4.79525e-08 3.81959e-06 
0 0 0 0.010941 -0.134441 0.00766125 0 894 2209 -0.000421914 0.000963056 -0.00210284 2.7232e-08 2.16823e-06 
0 0 0 0.00420763 -0.114994 0.00314922 0 894 1984 -0.000137472 0.000700069 -0.00142688 2.29629e-08 1.82816e-06 
0 0 0 -0.0093922 0.00148333 0.133282 0 852 1779 0.000691215 -0.0014511 -0.00022056 2.46008e-08 1.95863e-06 
0 0 0 -0.00422413 -0.131913 0.00400129 0 855 1326 0.0049157 0.00239987 0.000530719 5.53735e-08 4.41135e-06 
0 0 0 -0.00485513 -0.055233 0.0901558 0 855 2155 0.00710879 0.0009408 -0.00342762 7.134e-08 5.68513e-06 
0 0 0 0.014721 -0.0310382 0.081096 0 854 976 0.00295559 5.54546e-06 -0.00124443 5.19528e-08 4.13855e-06 
0 0 0 -0.00861254 -0.0914954 0.0641546 0 854 1327 0.0248661 0.00531144 -0.000639205 1.66668e-07 1.33073e-05 
0 0 0 0.00298952 -0.0687577 0.307934 0 854 932 0.0298791 -0.00371774 0.00157005 1.94602e-07 1.55463e-05 
0 0 0 0.00944894 -0.0526868 0.0927584 0 854 1628 0.00349324 -0.000987534 -0.00144064 5.28924e-08 4.21348e-06 
0 -9.33187 97.2186 -0.0790746 -9.87755 97.2588 1 2698 1116 -19.12 3.45354 -20.1378 1.16993e-05 0.00147466 
0 -10.7408 97.0959 -0.0790746 -9.87755 97.2588 1 2717 1116 23.1284 1.64717 18.6129 1.18586e-05 0.00152534 
0 -5.4562 85.6728 3.02006e-06 -7.09959 82.213 1 2707 753 0.0260055 0.274982 -0.01829 8.0146e-07 6.48289e-05 
0 -6.94345 85.5991 3.02006e-06 -7.09959 82.213 1 2721 753 0.0617008 0.218436 0.0859689 7.16868e-07 5.78842e-05 
0 -7.19722 85.7581 3.02006e-06 -7.09959 82.213 1 2722 753 0.0261744 0.137705 0.0627174 5.30356e-07 4.26594e-05 
0 -13.0577 95.5511 -0.0790746 -9.87755 97.2588 1 2725 1116 -0.366733 -0.336124 0.116341 1.08341e-06 8.81583e-05 
0 -11.4489 95.7377 -0.0790746 -9.87755 97.2588 1 2703 1116 -1.72811 0.139331 0.341862 2.52455e-06 0.000212149 
0 -7.73814 85.711 3.02006e-06 -7.09959 82.213 1 2703 753 -0.0144083 0.0610349 0.0408812 3.29855e-07 2.64236e-05 
0 -7.96061 85.5106 3.02006e-06 -7.09959 82.213 1 2702 753 -0.0201936 0.0984881 0.0645853 4.49429e-07 3.609e-05 
0 -12.8578 95.615 -0.0790746 -9.87755 97.2588 1 2723 1116 -1.41123 -1.09414 0.730819 2.68377e-06 0.00022638 
0 -12.9611 95.5806 -0.0790746 -9.87755 97.2588 1 2724 1116 -0.80442 -0.677916 0.368882 1.86987e-06 0.000154789 
0 -9.17982 85.5587 3.02006e-06 -7.09959 82.213 1 2724 753 0.00148107 0.0326476 0.0516788 2.88458e-07 2.3088e-05 
0 -5.74181 85.7844 3.02006e-06 -7.09959 82.213 1 120 753 0.0447698 0.281188 -0.27627 9.89067e-07 8.03203e-05 
0 -5.39033 85.6516 3.02006e-06 -7.09959 82.213 1 134 753 0.0151741 0.280105 -0.0250803 8.10768e-07 6.55945e-05 
0 -5.37989 85.5866 3.02006e-06 -7.09959 82.213 1 136 753 0.0168528 0.337274 -0.445339 1.2364e-06 0.000100936 
0 -9.37361 85.3841 3.02006e-06 -7.09959 82.213 1 2726 753 0.0186882 0.0850285 0.0272528 3.75962e-07 3.01453e-05 
0 -5.23841 85.2346 3.02006e-06 -7.09959 82.213 1 137 753 -0.00227268 0.00652557 -0.000457134 6.78414e-08 5.40595e-06 
0 -17.0701 89.3784 0.0340644 -19.0023 86.6627 1 2696 2346 1.53592 2.78443 -0.5441 3.74238e-06 0.000324063 
0 -5.25614 85.2288 3.02006e-06 -7.09959 82.213 1 138 753 -0.00226047 0.00638894 -0.000423163 6.6959e-08 5.33554e-06 
0 -6.91627 85.4498 3.02006e-06 -7.09959 82.213 1 123 753 -0.0533248 0.399384 0.0493013 1.00398e-06 8.1557e-05 
0 -6.89221 85.5389 3.02006e-06 -7.09959 82.213 1 2650 753 0.0847216 0.214957 0.0926878 7.28903e-07 5.88707e-05 
0 -7.28968 85.2362 3.02006e-06 -7.09959 82.213 1 124 753 -0.101081 0.36581 0.120416 9.9139e-07 8.05129e-05 
0 -18.479 89.2557 0.0340644 -19.0023 86.6627 1 2714 2346 2.5431 1.31527 0.364458 3.49683e-06 0.000300905 
0 -9.17587 85.4791 3.02006e-06 -7.09959 82.213 1 2644 753 -0.00802844 0.22783 0.0277691 6.91273e-07 5.57878e-05 
0 -7.30329 85.2248 3.02006e-06 -7.09959 82.213 1 125 753 -0.103829 0.363513 0.124178 9.90998e-07 8.04804e-05 
0 -7.83683 85.3569 3.02006e-06 -7.09959 82.213 1 2647 753 0.054235 0.458552 0.0455336 1.09542e-06 8.91583e-05 
0 -7.49503 85.2347 3.02006e-06 -7.09959 82.213 1 2649 753 0.0925628 0.506385 0.0623803 1.17762e-06 9.60166e-05 
0 -7.95779 85.4761 3.02006e-06 -7.09959 82.213 1 126 753 -0.0219194 0.0995525 0.065012 4.52923e-07 3.63732e-05 
0 -9.41275 85.2864 3.02006e-06 -7.09959 82.213 1 2672 753 -0.000685737 0.322815 0.0614414 8.74429e-07 7.08394e-05 
0 -9.41887 85.3602 3.02006e-06 -7.09959 82.213 1 2674 753 0.0156527 0.0883728 0.0247435 3.81051e-07 3.05565e-05 
0 -9.68591 85.1212 3.02006e-06 -7.09959 82.213 1 2673 753 -0.00263712 0.206997 0.055826 6.60743e-07 5.32902e-05 
0 -19.6804 86.6268 0.0340644 -19.0023 86.6627 1 2713 2346 18.9841 -0.689752 19.9557 1.16534e-05 0.00146092 
0 -18.2716 86.7495 0.0340644 -19.0023 86.6627 1 2694 2346 -23.074 -0.546619 -19.143 1.18989e-05 0.00153908 
0 -8.15187 75.3021 -4.44722e-05 -7.12423 75.3915 1 91 303 -0.00951686 0.00456678 0.0020414 9.09137e-08 7.24781e-06 
0 -10.8574 75.0931 -4.44722e-05 -7.12423 75.3915 1 86 303 -0.00738379 0.00785581 0.0178532 1.41216e-07 1.12693e-05 
0 -9.88154 75.125 -4.44722e-05 -7.12423 75.3915 1 63 303 -0.0902588 0.0637966 0.10109 5.13092e-07 4.12561e-05 
0 -8.04939 75.2961 -4.44722e-05 -7.12423 75.3915 1 92 303 -0.00850953 0.00475968 0.000355342 8.20564e-08 6.54054e-06 
0 -10.9388 75.0593 -4.44722e-05 -7.12423 75.3915 1 85 303 -0.0116934 0.0154667 0.0371653 2.24547e-07 1.79494e-05 
0 0 0 -9.29496 -50.5895 19.9686 0 924 2361 -0.906794 0.980178 1.63338 1.88233e-06 0.000155864 
0 0 0 -17.9718 35.2001 29.3374 0 946 104 -0.0194733 0.852333 -1.52981 2.25191e-06 0.000188041 
0 0 0 -6.10424 39.486 26.3449 0 947 1177 -0.0190088 0.195086 -0.0985961 1.5776e-06 0.00012975 
0 76.1654 2.17421 0.0459616 75.929 5.93265 1 514 405 0.0773979 -0.0933745 0.0248088 4.40258e-07 3.5347e-05 
0 76.1915 2.7579 0.0459616 75.929 5.93265 1 516 405 0.172386 -0.293913 0.136018 9.3568e-07 7.58993e-05 
0 75.9389 3.56029 0.0459616 75.929 5.93265 1 476 405 0.229895 -0.235117 0.186627 9.32874e-07 7.56671e-05 
0 75.6658 4.06604 0.0459616 75.929 5.93265 1 477 405 0.110093 -0.078121 0.107763 5.42357e-07 4.36354e-05 
0 76.0324 4.21352 0.0459616 75.929 5.93265 1 478 405 0.0643569 -0.0343928 0.0329414 3.53462e-07 2.83282e-05 
0 75.9564 5.2161 0.0459616 75.929 5.93265 1 485 405 0.0419379 -0.00846306 0.0203684 2.60236e-07 2.08173e-05 
0 76.2613 3.11423 0.0459616 75.929 5.93265 1 517 405 0.118086 -0.133837 0.0682386 6.11918e-07 4.93026e-05 
0 76.0804 4.74608 0.0459616 75.929 5.93265 1 1879 405 0.00352026 -0.00104554 0.00160944 6.79745e-08 5.41657e-06 
0 76.2226 3.11396 0.0459616 75.929 5.93265 1 1856 405 0.116444 -0.13374 0.0697396 6.10716e-07 4.92045e-05 
0 76.1824 3.57555 0.0459616 75.929 5.93265 1 1851 405 0.224999 -0.213929 0.122753 8.86107e-07 7.18031e-05 
0 76.1261 4.22167 0.0459616 75.929 5.93265 1 1852 405 0.0633424 -0.0328964 0.0302469 3.46523e-07 2.77682e-05 
0 0 0 -5.47579 22.383 -3.71514 0 954 929 -0.0335291 0.108243 -0.172909 1.15803e-06 9.43798e-05 
0 0 0 1.6547e-16 -8.7904e-16 4.61793e-14 0 885 23 -0.162439 -0.687251 -28.6462 1.17818e-05 0.00150028 
0 0 0 -5.43306e-16 1.20583e-15 1.68161e-12 0 885 765 -0.918915 -0.24905 -28.7467 1.17928e-05 0.00150379 
0 0 0 -3.047e-16 3.75813e-15 4.52188e-14 0 885 1484 0.176331 0.757074 -28.5388 1.177e-05 0.00149653 
0 0 0 1.65793e-16 -1.70575e-15 4.51634e-14 0 885 124 -0.388816 -1.00646 -28.7372 1.17918e-05 0.00150346 
0 0 0 -1.35726e-169 -1.42148e-19 4.48958e-12 0 885 1052 2.0251e-166 8.21841e-05 -28.6382 1.1781e-05 0.0015 
0 0 0 -1.26323e-07 8.97108e-08 -3.37731e-07 0 885 1441 4.222e-07 8.20483e-05 -28.6382 1.1781e-05 0.0015 
0 0 0 2.23543e-230 1.62234e-19 -1.6805e-12 0 885 173 7.23192e-225 8.21841e-05 -28.6382 1.1781e-05 0.0015 
0 0 0 -1.06551e-102 -3.24733e-19 -3.93784e-12 0 885 874 9.80651e-101 8.21841e-05 -28.6382 1.1781e-05 0.0015 
0 0 0 -2.37228 -0.977602 -1.32173 0 885 2356 0.0520679 -0.0900437 0.208028 2.61554e-07 2.09232e-05 
0 0 0 2.46913e-11 7.34507e-11 2.78176e-12 0 885 281 1.04692 -0.26518 -28.4438 1.17595e-05 0.00149321 
0 0 0 2.57502e-11 -1.2963e-10 -1.49638e-12 0 885 2235 -1.20376 0.675189 -28.8831 1.18076e-05 0.00150854 
0 0 0 -5.3113e-29 2.0291e-20 5.06146e-12 0 885 1154 1.65632e-28 8.21841e-05 -28.6382 1.1781e-05 0.0015 
0 0 0 -5.04405e-11 5.61795e-11 2.18309e-12 0 885 171 -0.231375 -0.18879 -28.5882 1.17755e-05 0.00149825 
0 0 0 1.6547e-16 -8.7904e-16 4.61793e-14 0 850 23 -0.157652 -0.66698 28.6302 1.17801e-05 0.00149972 
0 0 0 -5.43306e-16 1.20583e-15 1.68161e-12 0 850 765 -0.622744 -0.168753 28.5298 1.1769e-05 0.00149621 
0 0 0 -3.047e-16 3.75813e-15 4.52188e-14 0 850 1484 0.273916 1.01423 28.7376 1.17918e-05 0.00150347 
0 0 0 1.65793e-16 -1.70575e-15 4.51634e-14 0 850 124 -0.289501 -0.749433 28.5393 1.17701e-05 0.00149654 
0 0 0 -1.35726e-169 -1.42148e-19 4.48958e-12 0 850 1052 -2.02354e-166 8.21841e-05 28.6382 1.1781e-05 0.0015 
0 0 0 -1.26323e-07 8.97108e-08 -3.37731e-07 0 850 1441 5.43328e-08 8.21079e-05 28.6382 1.1781e-05 0.0015 
0 0 0 2.23543e-230 1.62234e-19 -1.6805e-12 0 850 173 -7.23198e-225 8.21841e-05 28.6382 1.1781e-05 0.0015 
0 0 0 -1.06551e-102 -3.24733e-19 -3.93784e-12 0 850 874 -9.8375e-101 8.21841e-05 28.6382 1.1781e-05 0.0015 
0 0 0 2.46913e-11 7.34507e-11 2.78176e-12 0 850 281 1.54885 -0.392357 28.833 1.18022e-05 0.00150679 
0 0 0 2.57502e-11 -1.2963e-10 -1.49638e-12 0 850 2235 -0.815421 0.453347 28.3939 1.17539e-05 0.00149146 
0 0 0 -5.04405e-11 5.61795e-11 2.18309e-12 0 850 171 -0.345214 -0.281716 28.6882 1.17864e-05 0.00150175 
0 0 0 -5.3113e-29 2.0291e-20 5.06146e-12 0 851 1154 1.22182e-30 8.21841e-05 28.6382 1.1781e-05 0.0015 
0 0 0 -0.022679 -0.0252278 -0.0192794 0 853 1554 0.00297859 -0.0257473 -0.00567219 1.87497e-07 1.49766e-05 
0 0 0 0.0143248 -0.0184998 -0.0141234 0 853 1914 -0.000464252 -0.00272632 0.000451073 5.26368e-08 4.1931e-06 
0 0 0 -0.0644592 0.00197065 0.0610839 0 853 2243 -0.00119501 -0.00370114 -0.0025796 4.67777e-08 3.72592e-06 
0 0 0 -0.0512825 -0.000528597 0.0524123 0 853 66 0.00135243 -0.00389654 7.90601e-05 5.01763e-08 3.9969e-06 
0 0 0 -0.0216244 0.0298255 -0.0103071 0 853 1356 0.00766043 -0.0258746 0.0025577 1.60749e-07 1.28331e-05 
0 0 0 -0.0198744 0.0064799 0.205465 0 853 676 -0.000929745 -0.0385063 -0.0126732 2.25576e-07 1.80321e-05 
0 0 0 -0.044956 0.0695532 0.01316 0 853 955 0.00260653 -0.0294589 0.00376774 1.57634e-07 1.25837e-05 
0 0 0 0.00305168 0.0324134 0.156583 0 853 1273 0.000445643 -0.00641821 -0.00317801 4.91896e-08 3.91823e-06 
0 0 0 0.108469 0.00468087 0.0624307 0 853 994 -0.00497232 -0.00483058 0.00228905 5.43917e-08 4.33305e-06 
0 0 0 -0.0572461 -0.00783371 0.0225792 0 853 1992 -0.00305712 -0.00463298 -0.00440124 6.11023e-08 4.86829e-06 
0 0 0 0.0158889 0.0395532 0.0549829 0 853 2157 0.0175555 -0.00758968 -0.00896925 5.36363e-08 4.27281e-06 
0 0 0 0.064813 0.00232108 0.0315616 0 853 1965 0.0020684 -0.0041715 -0.000268502 5.05602e-08 4.02751e-06 
0 0 0 0.019919 0.0182586 0.0780423 0 853 1745 4.93709e-05 -0.00313439 -0.00156642 3.02238e-08 2.40658e-06 
0 0 0 0.0273022 0.0239436 0.0995881 0 853 1433 -0.0025239 -0.0105365 0.00231416 8.27659e-08 6.59718e-06 
0 0 0 -0.00317773 -0.0148285 0.00988535 0 853 1679 -0.00102673 0.000182311 -0.00170037 1.61041e-08 1.28193e-06 
0 0 0 -0.0830253 -0.0058369 0.0672169 0 853 1687 -0.0028755 -0.028604 0.00215755 1.90487e-07 1.52163e-05 
0 0 0 0.0557617 0.0390226 0.00669141 0 853 1016 0.00516583 -0.00630693 -0.00276617 4.4273e-08 3.52625e-06 
0 0 0 -5.10819e-102 2.8419e-19 4.47967e-12 0 884 331 -2.23857e-100 8.21841e-05 -28.6382 1.1781e-05 0.0015 
0 0 0 -0.144325 0.0363655 -0.00650422 0 884 1594 0.012227 -0.00224789 0.0248638 1.67711e-07 1.33909e-05 
0 0 0 -0.275338 0.0836761 -0.0312195 0 884 792 0.00611199 -0.00530341 0.0161843 1.11741e-07 8.91195e-06 
0 0 0 -0.0467783 0.0325247 0.00261257 0 884 1301 -2.89591e-05 1.32432e-05 -6.3687e-05 5.61257e-10 4.46639e-08 
0 0 0 0.0143248 -0.0184998 -0.0141234 0 884 1914 -0.00245541 -0.00108623 0.00802565 7.20452e-08 5.74142e-06 
0 0 0 0.00311958 0.496628 0.00905307 0 884 1311 3.69213e-07 -0.000354053 0.000708106 2.41557e-08 1.92317e-06 
0 0 0 -0.232575 0.1291 -0.000663343 0 884 694 0.0284847 -0.00682867 0.0043471 5.31352e-08 4.23284e-06 
0 0 0 -0.171089 0.157182 -0.0206015 0 884 406 0.0112013 -0.0118573 0.0326229 1.94932e-07 1.55728e-05 
0 0 0 -0.0540136 0.15547 0.0365904 0 884 1774 0.00297363 -0.0042183 0.0103221 1.16463e-07 9.2894e-06 
0 0 0 -0.0572461 -0.00783371 0.0225792 0 884 1992 -0.00128083 0.00127092 0.00308309 5.85901e-08 4.6679e-06 
0 0 0 -0.00317773 -0.0148285 0.00988535 0 884 1679 -0.004182 -0.000464697 0.0151483 1.28357e-07 1.02405e-05 
0 0 0 0.0752618 0.151144 0.0340736 0 884 498 -0.00290938 -0.00523724 0.0119822 1.24467e-07 9.92939e-06 
0 0 0 0.0393021 0.147531 -0.0282819 0 884 785 -0.00526519 -0.013577 0.012195 9.0527e-08 7.21693e-06 
0 0 0 -0.670808 0.213625 0.264683 0 885 1034 -0.00457757 0.00109739 -0.0171718 3.51467e-08 2.79884e-06 
0 0 0 0.0904039 0.286019 0.0436472 0 885 1733 -0.000187513 -0.00139851 0.00282204 7.11417e-08 5.66931e-06 
0 0 0 -5.10819e-102 2.8419e-19 4.47967e-12 0 850 331 2.32989e-100 8.21841e-05 28.6382 1.1781e-05 0.0015 
0 0 0 -0.0215022 -0.00592727 0.135417 0 852 1823 0.000196916 -0.000411536 5.9703e-05 1.69882e-08 1.35233e-06 
0 0 0 0.00545384 -0.0466603 -0.00176319 0 894 1174 -0.000581284 0.000233086 -0.00172009 3.02754e-08 2.41069e-06 
0 0 0 0.0107935 -0.0432309 0.0172561 0 894 36 -0.00103143 -2.49994e-06 -0.00705561 6.33034e-08 5.04388e-06 
0 0 0 -0.00603804 -0.106806 -0.000620864 0 894 243 2.80616e-05 6.38679e-05 -0.000139522 6.15664e-09 4.8999e-07 
0 0 0 0.0130522 -0.163816 0.0124161 0 894 1585 2.72189e-05 0.000350145 -0.000702403 5.2694e-09 4.1937e-07 
0 0 0 -0.00588566 -0.150508 0.0025154 0 894 18 -0.000611423 0.00141599 -0.0064147 6.78441e-08 5.40617e-06 
0 0 0 0.0244278 -0.0894486 0.0160377 0 894 1537 0.00132729 0.00155968 -0.00899558 7.74302e-08 6.17122e-06 
0 0 0 -0.0104588 -0.188938 -0.00333574 0 894 1820 0.000490167 0.00777248 -0.000893994 2.15964e-08 1.71933e-06 
0 0 0 0.00309104 -0.15775 0.00896086 0 894 1501 -0.000258549 0.0003951 -0.000944355 1.17067e-08 9.31804e-07 
0 0 0 -0.00150379 -0.12547 0.0471301 0 894 1999 -0.00211062 0.00320519 -0.00308108 1.17321e-08 9.33832e-07 
0 0 0 -0.0291883 -0.0675194 -0.00328714 0 894 1348 -0.00076021 0.00141378 -0.00457421 5.76164e-08 4.59024e-06 
0 0 0 -0.0150068 -0.0643137 -0.000319056 0 894 1760 0.000353156 0.000370758 -0.0030667 4.26973e-08 3.40064e-06 
0 0 0 -0.00791156 -0.182199 0.00573926 0 894 1790 3.20955e-05 0.000144697 -0.000296427 3.22272e-09 2.56472e-07 
0 0 0 -0.0232075 -0.0842762 0.0032281 0 894 1294 4.56182e-05 5.26807e-05 -7.52167e-05 2.4956e-09 1.98603e-07 
0 0 0 0.0139345 0.000884562 0.0575034 0 894 1935 0.00275839 -0.00188731 -0.00289682 6.09257e-09 4.8489e-07 
0 0 0 0 4.97667e-23 -2.24229e-12 0 894 272 1.77034e-305 8.21841e-05 28.6382 1.1781e-05 0.0015 
0 0 0 0.0103094 -0.0185015 0.169008 0 852 1229 6.17695e-05 -0.00201664 0.00050492 4.61516e-08 3.67601e-06 
0 0 0 0.0547765 0.00730634 0.082453 0 852 1332 -0.000881661 -0.00475408 -0.00220749 5.20407e-08 4.14556e-06 
0 0 0 0.0335865 -0.0264936 0.150209 0 852 161 0.000149275 0.000326819 -6.6479e-05 2.61954e-08 2.08566e-06 
0 0 0 0 4.97667e-23 -2.24229e-12 0 849 272 -1.77034e-305 8.21841e-05 -28.6382 1.1781e-05 0.0015 
0 0 0 -0.0152162 -0.0913969 0.000708772 0 895 1834 -0.000742202 0.00291621 -0.00574549 6.40614e-08 5.10436e-06 
0 0 0 -0.0232075 -0.0842762 0.0032281 0 895 1294 0.00135301 0.00173277 -0.00543326 6.00721e-08 4.78611e-06 
0 0 0 0.000940679 -0.118025 5.17217e-05 0 895 532 1.85629e-05 -1.46111e-05 -0.00152992 2.66817e-08 2.12439e-06 
0 0 0 -0.0110895 -0.172899 -0.00530603 0 895 1021 -0.00467674 0.00469851 -8.12936e-06 8.68778e-09 6.91471e-07 
0 0 0 4.65285 -17.1313 31.2572 0 931 944 -0.0117324 0.0319948 0.0470979 1.02921e-06 8.3651e-05 
0 0 0 -5.79546 -30.2168 33.1595 0 929 2161 -0.0282268 0.872225 0.55503 1.95807e-06 0.000162413 
0 0 0 2.15702 16.1811 35.0679 0 941 1338 0.00250707 0.0444807 0.00405403 1.19189e-06 9.721e-05 
0 0 0 0.852626 -26.0092 14.8316 0 925 446 -0.0434837 0.0236842 0.137328 1.12022e-06 9.12244e-05 
0 0 0 8.81541 -46.5273 15.2835 0 923 587 0.373471 1.12415 2.72549 4.15387e-06 0.000363607 
0 0 0 -2.73997 52.1546 11.8515 0 951 588 -0.00840119 0.0864811 0.303505 1.09242e-07 8.71218e-06 
0 0 0 -6.96511 21.379 8.15673 0 951 2360 0.0765247 0.206101 -0.884836 1.30416e-06 0.000106624 
0 85.7751 6.10383 -0.0405413 82.1169 7.42966 1 526 1181 -0.0112885 0.012357 -0.107744 4.28313e-07 3.43796e-05 
0 85.6639 6.58525 -0.0405413 82.1169 7.42966 1 541 1181 0.0299262 -0.0159469 -0.351868 9.22987e-07 7.48496e-05 
0 84.3178 7.91206 -0.0405413 82.1169 7.42966 1 544 1181 -0.000213123 0.000179951 -0.000183866 3.94055e-08 3.13826e-06 
0 85.8375 6.09167 -0.0405413 82.1169 7.42966 1 527 1181 -0.000132758 0.0077154 -0.0687442 3.17142e-07 2.53987e-05 
0 85.5048 7.20121 -0.0405413 82.1169 7.42966 1 523 1181 -0.0379164 0.0634446 -0.295799 8.3963e-07 6.79707e-05 
0 84.0392 10.3889 -0.0405413 82.1169 7.42966 1 1834 1181 0.00187269 0.20096 -0.177926 7.67504e-07 6.20382e-05 
0 84.0534 10.3975 -0.0405413 82.1169 7.42966 1 1835 1181 0.00107454 0.194244 -0.184533 7.66468e-07 6.19531e-05 
0 85.2633 9.56728 -0.0405413 82.1169 7.42966 1 1829 1181 -0.0439553 0.07901 -0.577376 1.2708e-06 0.000103822 
0 85.7317 7.44699 -0.0405413 82.1169 7.42966 1 1869 1181 -0.0754152 0.116369 -0.223044 7.61764e-07 6.15669e-05 
0 85.8375 7.35144 -0.0405413 82.1169 7.42966 1 1870 1181 -0.056758 0.0500971 -0.10042 4.70537e-07 3.78014e-05 
0 85.947 6.99538 -0.0405413 82.1169 7.42966 1 1871 1181 -0.0402449 0.0502541 -0.134574 5.24412e-07 4.21761e-05 
0 85.3236 7.81557 -0.0405413 82.1169 7.42966 1 1868 1181 -0.0568455 0.0374546 -0.566361 1.25893e-06 0.000102826 
0 85.8049 8.62751 -0.0405413 82.1169 7.42966 1 1893 1181 -0.0721944 0.137071 -0.20714 7.44808e-07 6.01752e-05 
0 85.8976 8.25231 -0.0405413 82.1169 7.42966 1 1892 1181 0.00450031 0.0301466 -0.0386449 2.4451e-07 1.95531e-05 
0 85.1814 9.44769 -0.0405413 82.1169 7.42966 1 1885 1181 -0.0617878 0.102228 -0.727195 1.47932e-06 0.000121405 
0 84.0583 10.2189 -0.0405413 82.1169 7.42966 1 1888 1181 -0.00199505 0.00495753 -0.000606232 6.42316e-08 5.11794e-06 
0 84.5814 9.98954 -0.0405413 82.1169 7.42966 1 1887 1181 -0.0680698 0.0620873 -0.0323848 4.0484e-07 3.24799e-05 
0 86.0398 6.62018 -0.0405413 82.1169 7.42966 1 1873 1181 -6.27807e-06 0.000243417 -0.000927893 2.41322e-08 1.9213e-06 
0 85.376 9.30012 -0.0405413 82.1169 7.42966 1 1828 1181 -0.0592684 0.0804959 -0.586491 1.28372e-06 0.000104907 
0 84.0212 10.8812 -0.0405413 82.1169 7.42966 1 1837 1181 -0.020153 0.0871322 -0.0044543 3.6565e-07 2.93123e-05 
0 85.4235 8.7146 -0.0405413 82.1169 7.42966 1 1842 1181 0.0228238 0.158158 -0.186102 7.14605e-07 5.76988e-05 
0 85.3806 9.32003 -0.0405413 82.1169 7.42966 1 1831 1181 -0.0640992 0.0769173 -0.581759 1.27744e-06 0.000104379 
0 85.4763 8.86674 -0.0405413 82.1169 7.42966 1 1826 1181 -0.0108405 0.181959 -0.229805 8.05508e-07 6.51618e-05 
0 85.3114 9.50603 -0.0405413 82.1169 7.42966 1 1830 1181 -0.0508839 0.0694666 -0.564352 1.25125e-06 0.000102182 
0 0 0 0.182187 0.470955 0.440723 0 961 428 -0.0841728 9.49192 12.5318 9.51415e-06 0.00101433 
0 0 0 0.182187 0.470955 0.440723 0 753 428 0.0210735 -9.42173 -12.5043 9.38828e-06 0.000994208 
0 0 0 0.000610164 -0.000142071 7.43394e-05 0 963 716 -0.832257 4.53404 13.3418 8.73457e-06 0.0008956 
0 0 0 0.000610164 -0.000142071 7.43394e-05 0 751 716 0.625718 -4.86255 -8.90997 7.44844e-06 0.000723642 
0 0 0 0.000610164 -0.000142071 7.43394e-05 0 752 716 0.206354 0.328718 -4.43189 4.74426e-06 0.000422072 
0 0 0 -0.16139 0.377386 -0.983433 0 891 496 0.0047499 0.00129023 0.0043772 9.66928e-08 7.70943e-06 
0 0 0 1.3481 -0.92255 -1.77443 0 889 1523 -0.161024 -0.138101 0.122962 1.4531e-07 1.1597e-05 
0 0 0 -0.0898876 0.0221887 0.125683 0 889 558 -0.0127521 0.00637 0.00027731 1.59579e-07 1.27395e-05 
0 0 0 0.018859 0.134834 0.0318936 0 889 267 -0.0125997 -0.00628951 -0.000360771 9.82254e-08 7.83186e-06 
0 0 0 -0.114848 -0.122982 -0.286201 0 888 650 -0.0125614 -0.00184472 0.00600367 1.7225e-07 1.37545e-05 
0 0 0 -0.0876512 -0.145047 0.160776 0 888 863 -0.00501979 -0.000871077 0.000942199 1.15032e-07 9.17502e-06 
0 0 0 -0.007194 0.106196 -0.00941178 0 888 817 -0.00616239 -0.000390646 0.00305633 7.21483e-08 5.74964e-06 
0 0 0 -0.00987221 0.0328592 -0.0319352 0 888 382 -0.00695947 -0.00327387 0.00117912 7.9417e-08 6.32982e-06 
0 0 0 0.071454 -0.118101 -0.0923864 0 888 1795 -0.0166872 0.00804315 -0.00221887 9.31437e-08 7.42593e-06 
0 0 0 0.00378583 -0.141835 0.0533003 0 888 2295 -0.0119219 0.00319786 -0.00503059 1.02728e-07 8.19163e-06 
0 0 0 0.00227732 0.000759972 0.00337952 0 888 1564 -0.000217376 -0.000498689 0.000491937 4.77868e-09 3.80311e-07 
0 0 0 -0.00185577 0.14027 0.189718 0 888 1545 -0.010257 -0.00476228 -0.00190314 9.59622e-08 7.65107e-06 
0 0 0 -0.016096 -0.101958 0.018426 0 888 2154 -0.000211863 0.000184653 -0.000300068 2.38091e-08 1.89557e-06 
0 0 0 0.0635853 -0.0702834 -0.0650537 0 888 1991 -0.094439 0.0169768 -0.00102417 3.8895e-07 3.11949e-05 
0 0 0 0.02836 0.175588 0.057758 0 888 2102 -0.0334366 0.0011423 0.00188678 1.94666e-07 1.55515e-05 
0 0 0 -0.00726722 0.0291597 -0.000412791 0 888 1135 -0.00188982 -0.00121892 -0.0011136 3.63639e-08 2.89584e-06 
0 0 0 0.0355782 -0.019418 0.170645 0 888 1769 -0.0083318 -0.00168083 -0.00381177 6.13101e-08 4.88487e-06 
0 0 0 0.0355782 -0.019418 0.170645 0 853 1769 -0.00349879 -0.119846 0.0121268 4.92101e-07 3.95513e-05 
0 0 0 -0.0197587 -0.0706523 0.193618 0 853 1889 -0.00128976 -0.0275439 -0.00466291 2.176e-07 1.73917e-05 
0 0 0 -0.178846 2.23813 1.81819 0 890 2359 0.00873553 -0.0042553 0.000984804 7.46995e-08 5.95326e-06 
0 0 0 0.00112409 0.0140525 -0.0767333 0 890 940 -0.0338537 0.00878103 -0.0042466 2.09321e-07 1.67272e-05 
0 0 0 0.248961 0.130996 0.0137914 0 885 1069 -0.0226788 -0.0107919 0.00625316 7.69579e-08 6.13352e-06 
0 0 0 0.018859 0.134834 0.0318936 0 885 267 0.00380917 -0.0011825 0.0226937 1.77069e-07 1.41407e-05 
0 0 0 0.00617529 -0.0231409 -0.0305692 0 891 1088 -0.00271596 0.00092054 0.000998356 3.46862e-08 2.76215e-06 
0 0 0 -0.000163359 -0.117698 0.0150508 0 891 260 -1.70425e-05 8.01329e-06 -2.8981e-06 1.60981e-09 1.28109e-07 
0 0 0 -0.0094677 -0.122673 0.0633324 0 891 705 -0.00101445 0.000469737 -0.000191372 2.83857e-08 2.26014e-06 
0 0 0 -0.00799212 -0.0016756 -0.0329209 0 887 302 0.000223141 0.000176301 0.000144255 5.67649e-09 4.51772e-07 
0 0 0 -0.00767329 -0.0902277 0.0135073 0 892 2009 -0.00025637 0.000133895 6.33483e-05 1.61958e-08 1.28924e-06 
0 0 0 -0.00891124 -0.0433393 -0.00657252 0 895 314 -3.46493e-05 3.40406e-05 9.7146e-05 7.62175e-09 6.06612e-07 
0 0 0 0.0350662 -0.0420143 0.0060798 0 895 133 -0.00243281 0.000271405 -0.00480499 5.3263e-08 4.24304e-06 
0 0 0 0.0177161 -0.08917 0.0192535 0 888 866 -0.00693523 0.00344362 -0.000407284 6.21459e-08 4.95154e-06 
0 0 0 -0.00693866 -0.0660111 0.0372907 0 888 2201 -0.00188055 -0.00038593 4.39621e-05 3.60151e-08 2.86805e-06 
0 0 0 -0.00101534 -0.0681078 0.101183 0 888 1358 -0.0010079 -0.00168867 -0.00221218 2.1106e-08 1.68027e-06 
0 0 0 -0.00628424 -0.00325493 0.0542695 0 888 668 -0.00267217 0.000277119 -0.00038975 4.33222e-08 3.45044e-06 
0 0 0 7.53284 3.3609 21.0308 0 385 1413 -0.0179995 0.53817 -0.0784861 1.49344e-06 0.000122602 
0 0 0 -0.600466 -4.57856 28.0088 0 381 2336 -0.00205817 -0.136302 0.0217407 1.25857e-07 1.00406e-05 
0 0 0 18.1476 -28.3553 27.3441 0 377 2364 -0.958129 3.68994 1.03657 2.55179e-06 0.000214576 
0 0 0 -0.310876 15.0215 14.8297 0 393 1375 -1.08405 1.27987 -2.29593 3.40993e-06 0.000292784 
0 0 0 -0.95598 13.327 18.3045 0 391 2264 0.00280468 0.422169 -0.361339 1.27393e-06 0.000104085 
0 0 0 -0.125124 8.38428 21.9159 0 389 90 0.135526 0.489373 -0.238365 6.37637e-07 5.14021e-05 
0 0 0 0.956727 10.5966 18.4994 0 389 1295 0.0036409 -0.0673097 0.072808 2.45509e-07 1.96333e-05 
0 0 0 4.99045 9.13585 25.5763 0 387 1508 -0.0125351 0.355577 -0.0747259 1.38134e-06 0.000113123 
0 0 0 2.81917 9.61043 26.4595 0 388 2321 0.00320712 -0.115957 0.0728299 1.51596e-07 1.21002e-05 
0 0 0 -1.36334 -30.8964 25.6593 0 373 2224 -0.0354988 0.822688 0.875503 2.3013e-06 0.000192385 
0 0 0 -3.90486 -34.519 -0.809626 0 364 2049 -0.116038 0.12206 1.32202 1.77565e-06 0.00014668 
0 0 0 -3.90486 -34.519 -0.809626 0 365 2049 0.373645 0.041281 -1.00151 8.13786e-07 6.58428e-05 
0 0 0 1.02226 26.6875 19.462 0 395 239 0.0460911 0.539967 -1.00965 1.81212e-06 0.000149815 
0 0 0 -0.302936 17.3037 14.4899 0 395 902 0.0599319 0.293327 -0.41703 5.94292e-07 4.7865e-05 
0 0 0 7.7389 -19.9437 -8.31645 0 435 165 0.00502003 -0.045036 0.0793346 3.42919e-08 2.73073e-06 