ITEM: TIMESTEP
19000000
ITEM: NUMBER OF ENTRIES
479
ITEM: BOX BOUNDS ff ff ff
-0.01 0.45
-0.15 0.15
-0.08 0.1
ITEM: ENTRIES c_pwc[1] c_pwc[2] c_pwc[3] c_pwc[4] c_pwc[5] c_pwc[6] c_pwc[7] c_pwc[8] c_pwc[9] c_pwc[10] c_pwc[11] c_pwc[12] c_pwc[13] c_pwc[14] 
0 0 0 0.579744 3.20016 -3.94915 0 914 1287 -0.219833 1.00354 2.39052 2.4353e-06 0.000204222 
0 0 0 -2.95376e-46 6.05973e-20 -3.37593e-12 0 850 393 -2.47327e-45 8.21841e-05 28.6382 1.1781e-05 0.0015 
0 0 0 -2.57307e-34 2.63939e-19 1.69033e-12 0 850 1145 8.90119e-34 8.21841e-05 28.6382 1.1781e-05 0.0015 
0 0 0 2.9279e-16 7.35983e-16 -3.36423e-12 0 850 465 0.918206 0.249119 28.7458 1.17927e-05 0.00150375 
0 0 0 -1.2974e-10 -1.32674e-10 1.09065e-12 0 850 665 0.312074 0.828297 28.7518 1.17934e-05 0.00150397 
0 0 0 -2.95376e-46 6.05973e-20 -3.37593e-12 0 885 393 1.86823e-45 8.21841e-05 -28.6382 1.1781e-05 0.0015 
0 0 0 2.9279e-16 7.35983e-16 -3.36423e-12 0 885 465 0.62465 0.1695 -28.5307 1.17691e-05 0.00149625 
0 0 0 -1.2974e-10 -1.32674e-10 1.09065e-12 0 885 665 0.235416 0.511264 -28.5247 1.17685e-05 0.00149603 
0 0 0 -2.57307e-34 2.63939e-19 1.69033e-12 0 884 1145 -1.68236e-33 8.21841e-05 -28.6382 1.1781e-05 0.0015 
0 0 0 0.0690835 0.118415 -0.135197 0 855 1865 0.032748 -0.000777531 0.0163555 2.38141e-07 1.90413e-05 
0 0 0 0.00665932 -0.14523 -0.0266419 0 855 802 0.00431697 0.00307903 0.00134532 5.78068e-08 4.60542e-06 
0 0 0 -0.146168 -0.187525 0.0464713 0 894 398 -0.0020448 0.000810992 -0.00439951 2.38997e-08 1.90278e-06 
0 0 0 0.0709076 -0.0409454 -0.0046767 0 884 520 -5.94432e-05 0.000381207 0.000771628 1.27584e-08 1.01554e-06 
0 0 0 -0.0346448 -0.00461636 0.00664039 0 884 1594 0.000102628 7.10171e-06 -0.000205746 3.1178e-09 2.48122e-07 
0 0 0 -0.101038 0.0183353 0.00282011 0 884 935 0.0043953 -0.000312755 -6.70615e-05 2.24788e-09 1.78888e-07 
0 0 0 0.0557037 0.00282188 0.0011254 0 854 2185 -0.0025935 -7.05918e-05 -6.44914e-05 1.91713e-08 1.52619e-06 
0 0 0 0.000420541 -0.0118361 -0.0312596 0 854 1611 0.00203871 0.000994391 -0.000224203 3.2677e-08 2.60205e-06 
0 0 0 0.0113343 0.0611172 0.135309 0 854 531 -0.00034538 -0.000121908 -0.000122312 1.22526e-09 9.75051e-08 
0 0 0 -0.00186408 -0.069357 0.134721 0 854 2332 0.000778675 8.81535e-05 -0.000379226 1.537e-08 1.22348e-06 
0 0 0 -0.0120815 -0.00323884 0.149816 0 852 489 0.000482482 -0.0131049 0.000536317 1.13489e-07 9.05165e-06 
0 0 0 0.000601376 -0.0820186 -0.00514041 0 894 1051 -2.29506e-05 0.000773834 -0.00415288 5.54506e-08 4.4175e-06 
0 0 0 -0.00695014 -0.0482899 -0.0166298 0 894 1344 1.54732e-05 0.00246502 -0.00493014 6.91759e-08 5.51244e-06 
0 0 0 -0.0395558 -0.155227 0.0139503 0 894 1131 -0.00014877 0.000758373 -0.00154565 1.59223e-08 1.26746e-06 
0 0 0 0.0173022 -0.0223938 -0.0152507 0 894 346 2.771e-05 6.04938e-05 0.000263689 1.50051e-08 1.19443e-06 
0 0 0 -0.0329174 -0.00123056 0.0287841 0 894 1386 0.00661143 -0.00524896 -0.00607401 4.87712e-08 3.88486e-06 
0 0 0 0.0582142 -0.0517163 0.070518 0 894 2209 -0.000662761 0.00215052 -0.00592899 2.33056e-08 1.85546e-06 
0 0 0 0.00694984 -0.0786377 0.00933255 0 894 2057 -0.000535987 -0.00053421 -0.00336412 3.86377e-08 3.07706e-06 
0 0 0 -0.0205197 -0.0585299 -0.000539846 0 894 1812 -0.00186509 0.0062682 -0.000542163 1.38992e-08 1.10637e-06 
0 0 0 0.0307913 0.0309695 -0.0084445 0 894 2191 9.63893e-05 -5.37273e-06 0.000114502 9.73722e-09 7.75014e-07 
0 0 0 -0.0111473 -0.0599563 -0.380231 0 855 702 0.0183296 0.00251081 0.00230314 1.33735e-07 1.06708e-05 
0 0 0 0.0412176 0.249949 -0.157061 0 855 1443 -0.000440262 -0.000126638 0.000180057 3.86999e-08 3.08201e-06 
0 0 0 0.0211139 -0.0299604 0.0368323 0 855 1326 -0.000381054 1.61252e-05 -0.000189843 1.96157e-08 1.56157e-06 
0 0 0 -0.0111828 0.0262912 -0.0982758 0 855 2231 0.00291885 -0.000103729 -0.00145573 3.30868e-08 2.6347e-06 
0 0 0 0.00885402 -0.0195004 0.00305052 0 855 1816 -0.000127431 2.23471e-05 -3.38662e-05 9.96014e-09 7.9276e-07 
0 0 0 0.00214731 -0.0948998 -0.0179798 0 855 2155 0.00131513 0.000657283 1.92665e-05 2.59216e-08 2.06384e-06 
0 0 0 0.000601376 -0.0820186 -0.00514041 0 855 1051 0.00507026 0.000318978 0.00104998 5.97557e-08 4.76087e-06 
0 0 0 0.0127822 -0.0557385 0.0547463 0 854 250 0.00465064 0.000548315 -0.000410827 6.45178e-08 5.14077e-06 
0 0 0 -0.000172794 -0.0349861 0.0937466 0 854 715 0.00487035 -0.00122278 -0.000761082 5.76795e-08 4.59527e-06 
0 -28.7588 91.3643 -0.0693117 -32.1529 91.297 1 2706 1116 -0.48256 1.19491 -3.78737 4.25318e-06 0.000373295 
0 -30.9006 91.6853 -0.0693117 -32.1529 91.297 1 2698 1116 -16.0566 5.89307 -13.3126 1.07705e-05 0.00124393 
0 -32.2279 91.1972 -0.0693117 -32.1529 91.297 1 2717 1116 14.5534 -3.91379 37.716 1.23794e-05 0.00175607 
0 -27.7434 81.2397 -6.56993e-07 -28.4215 77.4701 1 2707 753 0.0262432 0.270169 0.0541785 8.01688e-07 6.48476e-05 
0 -28.9772 91.3529 -0.0693117 -32.1529 91.297 1 2704 1116 -1.37241 1.24378 -5.97464 5.53373e-06 0.000503819 
0 -28.8638 91.3575 -0.0693117 -32.1529 91.297 1 2705 1116 -0.841814 1.29485 -4.80906 4.88726e-06 0.000436563 
0 -29.1593 80.7785 -6.56993e-07 -28.4215 77.4701 1 2721 753 0.0619512 0.188138 0.140429 7.17036e-07 5.7898e-05 
0 -30.3045 90.8648 -0.0693117 -32.1529 91.297 1 2722 1116 3.99753 -2.47244 -8.76783 7.14266e-06 0.000686067 
0 -29.4459 80.8653 -6.56993e-07 -28.4215 77.4701 1 2722 753 0.0262293 0.116446 0.0967156 5.30507e-07 4.26716e-05 
0 -29.9555 80.6779 -6.56993e-07 -28.4215 77.4701 1 2703 753 -0.0144137 0.0481721 0.0554705 3.29877e-07 2.64254e-05 
0 -30.1175 80.4261 -6.56993e-07 -28.4215 77.4701 1 2702 753 -0.0202003 0.0780827 0.0881677 4.49424e-07 3.60896e-05 
0 -31.3067 80.1527 -6.56993e-07 -28.4215 77.4701 1 2724 753 0.0014016 0.0179228 0.0584309 2.88422e-07 2.30851e-05 
0 -27.6743 81.2366 -6.56993e-07 -28.4215 77.4701 1 134 753 0.0144183 0.276979 0.0487636 8.10998e-07 6.56134e-05 
0 -27.6472 81.1766 -6.56993e-07 -28.4215 77.4701 1 136 753 0.0169202 0.442425 -0.34132 1.2366e-06 0.000100954 
0 -28.0483 81.2725 -6.56993e-07 -28.4215 77.4701 1 120 753 0.0448558 0.343936 -0.192832 9.89255e-07 8.03359e-05 
0 -31.4478 79.9334 -6.56993e-07 -28.4215 77.4701 1 2726 753 0.018715 0.0748571 0.048621 3.75902e-07 3.01405e-05 
0 -27.4183 80.8741 -6.56993e-07 -28.4215 77.4701 1 137 753 -0.00228049 0.00644029 0.00127547 6.80043e-08 5.41895e-06 
0 -27.4339 80.8638 -6.56993e-07 -28.4215 77.4701 1 138 753 -0.00226827 0.00629901 0.00127242 6.71198e-08 5.34838e-06 
0 -29.0938 80.6415 -6.56993e-07 -28.4215 77.4701 1 123 753 -0.0533401 0.372476 0.152403 1.00404e-06 8.15617e-05 
0 -29.094 80.7338 -6.56993e-07 -28.4215 77.4701 1 2650 753 0.0850377 0.182985 0.145964 7.29075e-07 5.88848e-05 
0 -29.3981 80.3374 -6.56993e-07 -28.4215 77.4701 1 124 753 -0.101126 0.321351 0.21225 9.91408e-07 8.05144e-05 
0 -29.4083 80.3228 -6.56993e-07 -28.4215 77.4701 1 125 753 -0.103885 0.318133 0.21529 9.91014e-07 8.04817e-05 
0 -29.9577 80.3103 -6.56993e-07 -28.4215 77.4701 1 2647 753 0.0542247 0.430582 0.164345 1.09553e-06 8.91673e-05 
0 -29.5959 80.2821 -6.56993e-07 -28.4215 77.4701 1 2649 753 0.0925742 0.472315 0.193202 1.17775e-06 9.60277e-05 
0 -31.282 80.0769 -6.56993e-07 -28.4215 77.4701 1 2644 753 -0.00805251 0.212549 0.0865786 6.91254e-07 5.57863e-05 
0 -30.1058 80.3937 -6.56993e-07 -28.4215 77.4701 1 126 753 -0.0219248 0.0789974 0.0888579 4.52916e-07 3.63726e-05 
0 -56.4511 85.1341 -0.0641762 -54.9773 85.7198 1 2689 2346 -6.88262 -7.12595 19.3792 1.0353e-05 0.00116063 
0 -31.46 79.8289 -6.56993e-07 -28.4215 77.4701 1 2672 753 -0.000709336 0.295361 0.143981 8.74387e-07 7.08359e-05 
0 -31.4852 79.8985 -6.56993e-07 -28.4215 77.4701 1 2674 753 0.0156762 0.0787503 0.0470683 3.80989e-07 3.05515e-05 
0 -31.6802 79.5978 -6.56993e-07 -28.4215 77.4701 1 2673 753 -0.00265256 0.185065 0.108163 6.60667e-07 5.3284e-05 
0 -56.2148 85.221 -0.0641762 -54.9773 85.7198 1 2713 2346 19.4456 -3.62697 14.3347 1.11921e-05 0.00133861 
0 -54.8875 85.7091 -0.0641762 -54.9773 85.7198 1 2694 2346 -12.5623 13.6035 -31.9048 1.22062e-05 0.0016614 
0 0 0 2.15064 -59.69 34.4754 0 925 588 0.109995 0.0337287 0.378021 2.22489e-06 0.000185669 
0 0 0 -7.68492 -52.74 6.86352 0 921 2366 0.491321 -0.0304452 1.26877 2.70034e-06 0.000227867 
0 -29.2463 69.9004 -3.89511e-05 -26.6555 70.881 1 63 303 -0.0902598 0.0350438 0.114285 5.13086e-07 4.12556e-05 
0 -30.1796 69.6136 -3.89511e-05 -26.6555 70.881 1 86 303 -0.0073798 0.00289494 0.0192796 1.41172e-07 1.12658e-05 
0 -30.2493 69.5596 -3.89511e-05 -26.6555 70.881 1 85 303 -0.0116887 0.00517177 0.0399073 2.24496e-07 1.79453e-05 
0 -27.6236 70.5251 -3.89511e-05 -26.6555 70.881 1 91 303 -0.00952385 0.00387397 0.00317139 9.09572e-08 7.25129e-06 
0 -27.5232 70.5462 -3.89511e-05 -26.6555 70.881 1 92 303 -0.00851657 0.00450548 0.0015957 8.21018e-08 6.54416e-06 
0 0 0 4.88737 26.4031 14.9749 0 948 2370 0.178008 0.447919 -1.14791 1.80917e-06 0.000149562 
0 0 0 16.3622 27.337 18.6925 0 947 2356 0.00316164 0.2036 -0.192807 1.33559e-06 0.000109267 
0 72.6384 23.2668 0.15411 71.5008 25.4627 1 1851 405 0.0833837 -0.073759 0.00280241 5.08579e-07 4.08895e-05 
0 72.7352 23.0037 0.15411 71.5008 25.4627 1 1856 405 0.0557852 -0.0481101 -0.00236884 4.07822e-07 3.27211e-05 
0 72.8065 21.9786 0.15411 71.5008 25.4627 1 514 405 0.12179 -0.377619 0.0533957 1.02719e-06 8.34836e-05 
0 72.704 22.4759 0.15411 71.5008 25.4627 1 516 405 0.181653 -0.361223 0.0568399 1.05092e-06 8.54552e-05 
0 72.2642 23.1394 0.15411 71.5008 25.4627 1 476 405 0.118309 -0.111239 0.0263102 6.31406e-07 5.08932e-05 
0 72.7423 22.372 0.15411 71.5008 25.4627 1 515 405 0.176607 -0.28578 -0.0937947 1.01947e-06 8.28429e-05 
0 71.7711 23.6575 0.15411 71.5008 25.4627 1 477 405 -0.00635827 0.0091386 0.00508072 2.67205e-08 2.12748e-06 
0 0 0 1.18012e-10 -4.33124e-11 -1.21364e-12 0 885 23 -0.162444 -0.687637 -28.6464 1.17819e-05 0.00150029 
0 0 0 -1.65035e-16 -7.6956e-16 -3.36193e-12 0 885 765 -0.918206 -0.248954 -28.7458 1.17927e-05 0.00150375 
0 0 0 -1.15698e-10 2.07839e-10 -1.91101e-12 0 885 1484 0.173714 0.754278 -28.5378 1.17699e-05 0.00149649 
0 0 0 1.27423e-10 -3.18534e-11 1.37032e-12 0 885 124 -0.389516 -1.00879 -28.7392 1.1792e-05 0.00150352 
0 0 0 -0.310816 0.434688 -1.13068 0 885 1177 0.0572531 -0.0675759 0.0497177 4.44376e-09 3.53654e-07 
0 0 0 -7.18849e-173 2.2349e-19 -6.1652e-12 0 885 1052 -4.45461e-169 8.21841e-05 -28.6382 1.1781e-05 0.0015 
0 0 0 -7.97173e-125 2.04653e-20 5.60335e-12 0 885 1441 3.68442e-122 8.21841e-05 -28.6382 1.1781e-05 0.0015 
0 0 0 0 1.62234e-19 -1.6805e-12 0 885 173 1.74748e-305 8.21841e-05 -28.6382 1.1781e-05 0.0015 
0 0 0 2.18202e-141 3.03726e-19 6.72709e-12 0 885 874 1.63779e-138 8.21841e-05 -28.6382 1.1781e-05 0.0015 
0 0 0 -5.51413e-06 -1.78037e-05 -1.30108e-07 0 885 281 1.0467 -0.263995 -28.447 1.17598e-05 0.00149332 
0 0 0 -7.03298e-06 3.3065e-05 2.18442e-07 0 885 2235 -1.20402 0.664618 -28.8724 1.18064e-05 0.00150817 
0 0 0 1.05209e-17 3.54833e-19 3.36599e-12 0 885 1154 -3.22629e-17 8.21841e-05 -28.6382 1.1781e-05 0.0015 
0 0 0 1.25467e-05 -1.52609e-05 -8.83338e-08 0 885 171 -0.240359 -0.195929 -28.5957 1.17763e-05 0.00149852 
0 0 0 1.18012e-10 -4.33124e-11 -1.21364e-12 0 850 23 -0.157488 -0.666649 28.6299 1.17801e-05 0.00149971 
0 0 0 -1.65035e-16 -7.6956e-16 -3.36193e-12 0 850 765 -0.62465 -0.169336 28.5307 1.17691e-05 0.00149625 
0 0 0 -1.15698e-10 2.07839e-10 -1.91101e-12 0 850 1484 0.276014 1.01638 28.7387 1.1792e-05 0.00150351 
0 0 0 1.27423e-10 -3.18534e-11 1.37032e-12 0 850 124 -0.288275 -0.746614 28.5373 1.17699e-05 0.00149648 
0 0 0 -7.18849e-173 2.2349e-19 -6.1652e-12 0 850 1052 4.45648e-169 8.21841e-05 28.6382 1.1781e-05 0.0015 
0 0 0 -7.97173e-125 2.04653e-20 5.60335e-12 0 850 1441 -3.66901e-122 8.21841e-05 28.6382 1.1781e-05 0.0015 
0 0 0 0 1.62234e-19 -1.6805e-12 0 850 173 -1.74748e-305 8.21841e-05 28.6382 1.1781e-05 0.0015 
0 0 0 2.18202e-141 3.03726e-19 6.72709e-12 0 850 874 -1.66155e-138 8.21841e-05 28.6382 1.1781e-05 0.0015 
0 0 0 -5.51413e-06 -1.78037e-05 -1.30108e-07 0 850 281 1.54101 -0.388759 28.8298 1.18018e-05 0.00150668 
0 0 0 -7.03298e-06 3.3065e-05 2.18442e-07 0 850 2235 -0.806347 0.459346 28.4046 1.17551e-05 0.00149183 
0 0 0 1.25467e-05 -1.52609e-05 -8.83338e-08 0 850 171 -0.336996 -0.274789 28.6807 1.17856e-05 0.00150148 
0 0 0 1.05209e-17 3.54833e-19 3.36599e-12 0 851 1154 -2.82315e-18 8.21841e-05 28.6382 1.1781e-05 0.0015 
0 0 0 -0.0368927 -0.0575486 0.0491491 0 895 1249 -0.00442512 0.00955103 -0.00762084 7.75968e-08 6.18452e-06 
0 0 0 0.0732515 0.0830555 0.121914 0 895 2016 -0.00692639 -0.0110732 -0.0105238 3.04896e-08 2.42776e-06 
0 0 0 -0.0752189 -0.0075221 -0.00450437 0 853 1914 -7.91181e-05 -0.000545741 8.5685e-05 2.05253e-08 1.63402e-06 
0 0 0 -0.00504519 -0.00818829 0.0533599 0 853 66 -0.00373375 -0.0169235 4.79492e-05 1.36756e-07 1.09125e-05 
0 0 0 -0.0706814 -0.0917836 0.0839924 0 853 682 -0.000271699 0.0038465 -0.000104894 4.05777e-09 3.22933e-07 
0 0 0 -0.0169303 -0.029005 -0.103462 0 853 1992 -5.98698e-05 0.00039864 0.000190116 2.76711e-08 2.20321e-06 
0 0 0 0.0319301 -0.0241258 -0.0499642 0 853 1218 -0.00333056 -0.0161387 0.00235044 1.41241e-07 1.12714e-05 
0 0 0 -0.0499101 -0.00874039 0.057763 0 853 1433 -0.000118812 -0.00143955 -0.000709901 3.27003e-08 2.6039e-06 
0 0 0 0.142408 -0.0488937 0.0052453 0 853 1687 0.000561456 6.18934e-05 0.00038596 4.94883e-08 3.94204e-06 
0 0 0 0.0489763 -0.0372818 0.0352106 0 853 2263 0.000954861 -0.0106377 0.00342532 1.18682e-07 9.46685e-06 
0 0 0 -0.0192495 0.0387204 0.0803002 0 853 1639 -0.00374835 -0.0121492 -0.00478023 8.43925e-08 6.72705e-06 
0 0 0 3.80322e-52 -2.84086e-19 -5.6034e-12 0 884 331 -2.80916e-51 8.21841e-05 -28.6382 1.1781e-05 0.0015 
0 0 0 -0.00173148 -0.0873144 0.0159691 0 884 311 -0.00214399 -0.00137595 0.0123403 1.16292e-07 9.2757e-06 
0 0 0 -0.122805 0.02147 0.00350598 0 884 792 0.000739934 -0.00188925 0.00905067 8.93841e-08 7.12566e-06 
0 0 0 -0.0755874 0.0155372 0.0426536 0 884 1311 -0.00141682 -0.0107372 0.0715867 3.62519e-07 2.90594e-05 
0 0 0 -0.0798421 -0.0356528 0.0148171 0 884 2289 0.000890538 -0.000926985 0.00398099 6.06072e-08 4.8288e-06 
0 0 0 0.174246 0.199045 0.0241161 0 884 1671 -0.0060916 0.00360555 0.0643274 3.31436e-07 2.65511e-05 
0 0 0 -0.0281251 0.00888299 0.0296345 0 884 1492 -0.00016501 -0.000264352 -0.000623251 2.49258e-08 1.98452e-06 
0 0 0 -0.0154887 0.0369673 0.0163839 0 884 761 0.00112853 -0.00170864 0.0105265 1.06005e-07 8.4535e-06 
0 0 0 0.0246487 0.0597301 -0.00951917 0 884 498 -0.00119148 -0.000480994 0.0025698 3.07864e-08 2.45141e-06 
0 0 0 0.00127899 -0.00577239 -0.00318993 0 884 785 0.00181974 0.00209621 0.00555178 6.10038e-08 4.86043e-06 
0 0 0 -0.158908 -0.294513 -0.137077 0 885 857 0.0124579 -0.000981616 0.0249931 1.03919e-07 8.28675e-06 
0 0 0 0.199171 0.14788 0.0120928 0 885 1905 -0.000226046 -0.00681444 0.0136364 1.21368e-07 9.68162e-06 
0 0 0 3.80322e-52 -2.84086e-19 -5.6034e-12 0 850 331 1.11885e-51 8.21841e-05 28.6382 1.1781e-05 0.0015 
0 0 0 -0.0785692 -0.0864934 0.000289458 0 894 358 0.00079075 -0.00045257 -0.0130535 1.11231e-07 8.87116e-06 
0 0 0 -0.00832047 -0.0113007 -0.000933286 0 894 36 -0.000650128 -0.000289667 -0.001244 2.40545e-08 1.91511e-06 
0 0 0 -0.0384343 -0.0155738 0.00186693 0 894 243 0.00060101 -6.31891e-05 -0.00120865 2.12858e-08 1.69459e-06 
0 0 0 -0.0269928 -0.122585 -0.00875165 0 894 1585 -0.000691293 0.000351239 -0.00155081 3.39293e-08 2.70184e-06 
0 0 0 -0.00149983 -0.146251 -0.00749113 0 894 18 0.00123889 0.000807524 -0.00491229 6.30488e-08 5.02357e-06 
0 0 0 -0.0337101 0.00583896 -0.0059167 0 894 11 -0.000105323 0.000162598 0.000126503 2.62505e-10 2.08896e-08 
0 0 0 0.0131557 -0.0742298 -0.000992991 0 894 1995 -0.000354867 0.000540506 -0.00129318 2.47079e-08 1.96716e-06 
0 0 0 0.025677 -0.0191402 0.0102852 0 894 1452 0.00232292 0.00093735 -0.00661349 6.4419e-08 5.13289e-06 
0 0 0 0.0123507 -0.104928 -0.00560587 0 894 1501 -0.00681645 0.00331284 -0.0036947 5.19472e-08 4.13811e-06 
0 0 0 0.0460038 -0.0027533 0.00115891 0 894 16 -0.00172268 -0.000519091 -0.0106711 9.67478e-08 7.71382e-06 
0 0 0 -0.0439612 0.053259 -0.0112007 0 894 1348 0.000736822 -0.00169203 -0.0060419 7.38222e-08 5.88323e-06 
0 0 0 0.0454013 -0.062235 0.00423331 0 894 1048 -0.000539528 0.000562497 -0.00374992 4.56455e-08 3.63566e-06 
0 0 0 0.0032298 -0.0442228 0.00461248 0 894 1935 -0.00141652 0.000441478 -0.00627837 6.55293e-08 5.22147e-06 
0 0 0 0 4.97667e-23 -2.24229e-12 0 894 272 1.77034e-305 8.21841e-05 28.6382 1.1781e-05 0.0015 
0 0 0 0.0141752 0.00461096 0.0459682 0 852 1307 -0.00229514 -0.00471978 -0.000604527 5.35446e-08 4.2655e-06 
0 0 0 0 4.97667e-23 -2.24229e-12 0 849 272 -1.77034e-305 8.21841e-05 -28.6382 1.1781e-05 0.0015 
0 0 0 -0.00857596 -0.0835424 0.00444959 0 895 1732 -0.000437068 0.000680442 -0.00161744 2.42094e-08 1.92745e-06 
0 0 0 0.029424 -0.0814665 -0.0132813 0 895 1937 -0.000220034 7.65938e-05 0.000465967 2.72718e-09 2.17034e-07 
0 0 0 0.00828287 -0.125456 -0.00242158 0 895 326 -0.000522021 0.00248515 -0.00507877 6.10122e-08 4.8611e-06 
0 0 0 -0.00270004 -0.128074 -0.00400437 0 895 1790 0.00114985 0.000960727 -0.00107089 2.44649e-08 1.9478e-06 
0 0 0 -0.0320101 -0.151015 -0.0097591 0 895 1457 0.00092519 0.00169452 -0.00386129 5.61912e-08 4.47656e-06 
0 0 0 -0.0512751 -0.0877793 -0.0129342 0 895 1294 0.00122082 -0.000411197 -0.00257642 4.72708e-08 3.76523e-06 
0 0 0 -0.036022 -0.099218 -0.00431692 0 895 532 -0.000857189 4.52615e-05 -0.0018466 3.36353e-08 2.6784e-06 
0 0 0 0.00207931 -0.142072 0.00251071 0 895 916 -0.00262208 -0.000185039 -0.00324261 4.23073e-08 3.36955e-06 
0 0 0 5.30325 -5.30453 24.5584 0 933 335 -1.11512 2.97181 0.204224 4.45247e-06 0.000392911 
0 0 0 -4.06085 -8.7959 27.201 0 934 191 0.661253 0.482276 0.138157 2.73543e-07 2.18876e-05 
0 0 0 -3.56394 -12.3268 24.5465 0 932 587 0.199265 0.733233 0.271516 9.57978e-07 7.77446e-05 
0 0 0 20.2849 -48.4789 18.8043 0 923 1712 0.265902 -0.480075 -0.328624 1.04246e-06 8.47521e-05 
0 0 0 -14.4239 44.0197 23.811 0 949 2373 -0.321679 0.382707 -1.17301 1.78732e-06 0.000147683 
0 81.1668 28.3439 0.0362489 77.3439 28.6705 1 526 1181 -0.0148626 0.066777 -0.169472 5.90912e-07 4.75895e-05 
0 80.9425 28.7766 0.0362489 77.3439 28.6705 1 541 1181 -0.0205391 0.153134 -0.391394 1.02978e-06 8.36985e-05 
0 81.2279 28.3484 0.0362489 77.3439 28.6705 1 527 1181 -0.00208422 0.0504812 -0.126835 4.87896e-07 3.92099e-05 
0 80.6385 29.3286 0.0362489 77.3439 28.6705 1 523 1181 -0.112793 0.17925 -0.248891 8.7815e-07 7.11464e-05 
0 78.4056 32.0595 0.0362489 77.3439 28.6705 1 1834 1181 -0.0090153 0.115168 -0.0787622 4.96802e-07 3.99329e-05 
0 78.4172 32.0716 0.0362489 77.3439 28.6705 1 1835 1181 -0.00850318 0.114054 -0.0795415 4.95737e-07 3.98465e-05 
0 79.8067 31.5688 0.0362489 77.3439 28.6705 1 1829 1181 -0.0259711 0.186179 -0.43968 1.11903e-06 9.11258e-05 
0 80.3081 29.9162 0.0362489 77.3439 28.6705 1 1868 1181 -0.0525729 0.187507 -0.526505 1.23483e-06 0.000100805 
0 81.1006 29.3006 0.0362489 77.3439 28.6705 1 1871 1181 -0.0247034 0.110351 -0.150886 6.04055e-07 4.86611e-05 
0 80.9014 29.6155 0.0362489 77.3439 28.6705 1 1870 1181 -0.0331231 0.0944706 -0.105633 5.0731e-07 4.07863e-05 
0 80.7743 29.6799 0.0362489 77.3439 28.6705 1 1869 1181 -0.0637872 0.153775 -0.211036 7.85753e-07 6.35375e-05 
0 80.7265 30.4766 0.0362489 77.3439 28.6705 1 1892 1181 0.00446476 0.0357234 -0.0261556 2.38951e-07 1.91064e-05 
0 80.5351 30.8383 0.0362489 77.3439 28.6705 1 1893 1181 -0.0825704 0.127054 -0.172 6.93096e-07 5.59371e-05 
0 79.7427 31.4538 0.0362489 77.3439 28.6705 1 1885 1181 -0.0472411 0.248846 -0.567152 1.32386e-06 0.000108281 
0 78.9972 31.8316 0.0362489 77.3439 28.6705 1 1887 1181 -0.0130471 0.0267512 0.000848183 1.75661e-07 1.40279e-05 
0 81.2769 28.2155 0.0362489 77.3439 28.6705 1 530 1181 0.000484813 0.00959407 -0.0262917 1.69471e-07 1.35318e-05 
0 78.2578 32.5372 0.0362489 77.3439 28.6705 1 1837 1181 -0.000927753 0.00650814 0.00149065 7.28472e-08 5.80542e-06 
0 80.1768 30.7905 0.0362489 77.3439 28.6705 1 1842 1181 0.0259301 0.182102 -0.114719 6.72283e-07 5.42339e-05 
0 80.1868 30.9351 0.0362489 77.3439 28.6705 1 1826 1181 -0.0174945 0.195736 -0.162143 7.45923e-07 6.02667e-05 
0 79.9823 31.3345 0.0362489 77.3439 28.6705 1 1828 1181 -0.0244252 0.185492 -0.475964 1.17075e-06 9.54423e-05 
0 79.9812 31.3602 0.0362489 77.3439 28.6705 1 1831 1181 -0.0258675 0.180155 -0.47099 1.16083e-06 9.46137e-05 
0 79.8554 31.5326 0.0362489 77.3439 28.6705 1 1830 1181 -0.0263137 0.177139 -0.434784 1.10715e-06 9.0135e-05 
0 81.2919 28.9389 0.0362489 77.3439 28.6705 1 1873 1181 -0.000871999 0.0118596 -0.0201249 1.49929e-07 1.19668e-05 
0 0 0 3.64013e-07 -2.19082e-12 -2.90109e-12 0 961 428 -1.22544e-15 9.45454 12.5197 9.45155e-06 0.00100427 
0 0 0 3.49208 21.1075 -9.40656 0 959 376 0.0481002 -0.418605 -0.70969 1.4457e-06 0.000118559 
0 0 0 3.64013e-07 -2.19082e-12 -2.90109e-12 0 753 428 1.22571e-15 -9.45437 -12.5197 9.45152e-06 0.00100427 
0 0 0 -3.16002 -15.2323 -16.8583 0 911 697 0.00794115 -0.504161 0.524629 1.54707e-06 0.000127154 
0 0 0 0.0539855 -0.0130788 0.00677911 0 963 716 -0.864198 4.48343 13.3106 8.71638e-06 0.000892981 
0 0 0 -1.71969 7.35128 -22.7181 0 898 2254 -0.00517462 -0.124719 -0.0967079 1.04247e-06 8.47527e-05 
0 0 0 -0.065702 -0.0830404 -0.00957442 0 892 1345 -0.014923 0.00859583 -0.00404133 1.57429e-07 1.25673e-05 
0 0 0 0.0539855 -0.0130788 0.00677911 0 751 716 0.730477 -4.84033 -8.8192 7.41767e-06 0.000719812 
0 0 0 0.00409802 -0.101682 0.0213153 0 895 188 0.000802415 0.00100706 -0.0103334 8.29977e-08 6.61569e-06 
0 0 0 0.0539855 -0.0130788 0.00677911 0 752 716 0.105531 0.362969 -4.49462 4.77351e-06 0.000425025 
0 0 0 -0.0114083 0.107766 0.0365941 0 888 1212 0.000278174 -0.000103276 0.000163743 9.58559e-09 7.62943e-07 
0 0 0 -0.0133652 0.0631513 0.00998748 0 888 2082 7.49916e-05 0.000852906 -0.00154718 1.64473e-08 1.30926e-06 
0 0 0 -0.0368149 0.0892967 -0.00201072 0 888 1991 -0.00969243 -0.00125498 0.000183696 1.12907e-07 9.00515e-06 
0 0 0 0.0334202 0.154436 0.0419826 0 888 1042 -0.0447875 0.000350805 -0.000695323 2.37593e-07 1.89973e-05 
0 0 0 -0.000272736 -0.0107118 0.0532317 0 888 2051 -0.00270987 0.000463529 -0.000965351 3.93091e-08 3.13057e-06 
0 0 0 0.00358055 0.00931186 0.0688221 0 888 378 -0.000287871 1.71808e-06 -0.000143925 5.05113e-09 4.01997e-07 
0 0 0 0.00358055 0.00931186 0.0688221 0 853 378 -0.000172977 -0.00168557 -0.000824844 2.12093e-08 1.6885e-06 
0 0 0 0.0189044 0.162964 0.0181119 0 886 1069 -0.00414959 -0.00203449 0.000406964 3.92055e-08 3.12231e-06 
0 0 0 -0.00706814 -0.101646 -0.0216597 0 891 260 -0.0108972 0.0054014 0.000715664 1.02848e-07 8.20122e-06 
0 0 0 -0.00240541 -0.122478 0.047458 0 891 705 -0.00182889 0.000587765 -0.000540342 3.19647e-08 2.54529e-06 
0 0 0 0.0402371 0.065708 -0.204441 0 887 302 -0.00617814 -0.00159238 0.00264702 4.25214e-08 3.38661e-06 
0 0 0 0.00642583 -0.0878327 0.115959 0 892 836 -0.00890117 0.000943117 -0.00434951 8.25187e-08 6.57745e-06 
0 0 0 -0.00743312 -0.0794404 0.0896093 0 895 1494 0.00299515 0.00542364 -0.012194 5.68768e-08 4.53125e-06 
0 0 0 0.00636726 -0.127893 0.00108337 0 895 314 -3.26882e-05 0.000761387 -0.00152418 2.57891e-08 2.05329e-06 
0 0 0 0.000355682 -0.10803 0.00109063 0 895 133 9.90278e-06 -0.000597833 -0.00155522 2.61468e-08 2.08178e-06 
0 0 0 -0.00205281 -0.0729763 0.0171449 0 888 2201 -0.000715772 6.78495e-05 -0.000153302 1.79713e-08 1.43062e-06 
0 0 0 -0.00612034 -0.0029725 0.0667625 0 888 2227 -0.00433579 0.000979604 -0.00193395 5.75967e-08 4.58867e-06 
0 0 0 -0.00362234 -0.0219571 0.0626908 0 888 468 -0.000208397 -7.71893e-05 -6.99936e-05 1.10774e-08 8.81704e-07 
0 0 0 -0.00556995 0.0316527 0.082323 0 888 1818 -0.0106861 -0.00274558 0.00356559 1.00721e-07 8.03122e-06 
0 0 0 -0.00495455 0.0198822 0.130329 0 888 1188 -0.00401803 -0.00137766 -0.00146226 5.42135e-08 4.31884e-06 
0 0 0 -0.0130682 0.00361756 0.0478674 0 888 1595 -0.000458365 0.000106155 -1.36375e-05 2.44206e-08 1.94428e-06 
0 0 0 -0.00141406 -0.0326364 0.0481931 0 888 668 -0.00134212 -0.000342147 -0.00150782 2.56457e-08 2.04186e-06 
0 0 0 -0.00112984 -0.00828648 0.0320811 0 888 1781 -0.00320811 0.00153831 -0.000454544 4.4563e-08 3.54936e-06 
0 0 0 -0.00112984 -0.00828648 0.0320811 0 853 1781 0.000971958 -0.00200311 -5.89456e-05 3.83026e-08 3.05035e-06 
0 0 0 -2.65836 -7.77081 22.7664 0 379 1338 0.0142313 0.15494 0.106876 1.08042e-06 8.79088e-05 
0 0 0 3.05249 -11.1209 21.2342 0 379 2336 -0.151698 0.525894 0.216996 6.74236e-07 5.43937e-05 
0 0 0 0.743168 -16.674 31.3832 0 377 50 0.0772486 0.723866 0.174549 2.14487e-06 0.000178664 
0 0 0 -12.35 -27.5154 34.7505 0 375 2349 -0.047814 -0.278306 -0.0364504 2.75943e-07 2.20808e-05 
0 -35.6688 106.216 -0.939545 -12.7058 28.7582 1 2612 1281 0.00537517 -0.27396 0.0305078 2.33824e-06 0.00019564 
0 0 0 2.3357 9.28235 29.0096 0 387 2264 -0.0340188 0.773747 -0.290576 1.80792e-06 0.000149454 
0 0 0 1.63948 -21.8503 5.53944 0 369 1179 -0.0335235 0.298062 0.740272 1.12941e-06 9.19912e-05 
0 0 0 -1.52323 -24.7596 -0.0379719 0 364 1381 -0.111919 0.0865842 0.834043 1.44035e-06 0.000118107 
0 0 0 -1.52323 -24.7596 -0.0379719 0 365 1381 0.159692 0.0463131 -0.725718 1.4299e-07 1.14114e-05 
0 0 0 -0.561856 -23.5047 -6.20434 0 437 1241 0.0550549 -0.0974834 0.657614 9.01848e-07 7.31028e-05 
0 0 0 0.754334 -24.2674 -11.928 0 433 2255 -0.000538716 0.0125748 -0.136754 2.64613e-07 2.11693e-05 
0 0 0 0.379663 32.8905 -6.79005 0 405 219 0.0682683 -0.401411 -1.09273 1.70524e-06 0.000140644 
0 0 0 -3.73531 31.3088 -3.45981 0 403 2270 -0.0208846 -0.0916828 -0.774403 1.85563e-06 0.000153561 
0 0 0 12.33 -38.8777 -51.5788 0 429 2147 -1.09961 -1.80986 1.32682 2.18539e-06 0.000182208 
0 0 0 1.12521 6.08913 -26.1983 0 417 2337 -0.123483 0.013553 -0.126328 9.54825e-07 7.74835e-05 
0 0 0 -1.17484 32.1351 -41.8802 0 413 1186 -0.0812387 -1.66737 -0.874659 2.6598e-06 0.00022423 
0 0 0 1.54811 15.0591 -34.0398 0 416 1723 0.00395195 0.203324 0.000483951 1.89581e-07 1.51437e-05 
0 0 0 -2.44003 -14.1989 25.8676 0 378 726 -0.00304442 -0.0689869 0.0240971 6.27265e-07 5.05551e-05 
0 0 0 1.55467 -22.9668 20.6725 0 374 2001 0.00404049 0.00425852 0.0137719 8.57703e-07 6.946e-05 
0 0 0 0.215727 -0.485901 22.8001 0 383 1527 0.00454827 0.50052 0.00463957 1.37614e-06 0.000112684 
0 0 0 1.13758 -4.79327 38.5472 0 383 2304 0.0188845 1.26339 -0.0364665 1.48656e-06 0.000122019 
0 0 0 -1.49871 -8.49856 25.5918 0 381 1766 -0.0657395 0.577874 0.142526 5.8639e-07 4.72209e-05 
0 0 0 2.43367 26.5412 30.0317 0 393 1993 0.0842218 0.664458 -0.715246 1.06914e-06 8.69702e-05 
0 0 0 -2.26192 16.1078 19.2742 0 391 1022 -0.0126209 0.184041 -0.0697106 1.16099e-06 9.46275e-05 
0 0 0 4.94212 -21.9278 19.6751 0 373 1496 0.0056288 -0.0829443 -0.0544527 1.79345e-08 1.42769e-06 
0 0 0 2.08432 -30.5255 22.4853 0 373 2065 0.0648349 0.999637 0.980517 1.99134e-06 0.000165297 
0 0 0 5.05074 -22.1658 20.17 0 373 950 0.0768708 0.658701 0.875379 2.47585e-06 0.000207819 
0 0 0 -4.08496 -31.846 15.1073 0 371 194 0.0618875 0.601884 0.905012 1.45553e-06 0.000119391 
0 0 0 -1.65089 -34.404 5.76762 0 367 1467 0.170221 0.0420026 0.666785 1.45092e-06 0.000119001 
0 0 0 -4.149 32.3588 3.27779 0 402 2074 -0.0287917 0.0383842 -1.00815 1.81207e-06 0.000149811 
0 0 0 -0.0640628 32.2178 1.0184 0 402 812 -0.000277837 0.0276327 0.111782 2.01903e-08 1.60734e-06 
0 0 0 -0.345772 24.2095 16.8546 0 395 923 0.00438559 0.457982 -0.829376 1.7592e-06 0.000145268 
0 0 0 0.071089 -27.8906 -3.36011 0 438 419 -0.00021302 -0.0188701 -0.116253 5.63017e-08 4.48538e-06 
0 0 0 -0.405624 -34.5413 -3.93132 0 438 1780 -0.012226 -0.0529378 -0.082283 7.68575e-07 6.21261e-05 
0 0 0 1.06735 -29.6191 -9.82071 0 436 232 -0.00741101 -0.228741 0.773549 1.84162e-06 0.000152354 
0 0 0 2.73076 -27.4524 -13.201 0 434 459 0.0068283 -0.0398344 -0.0547846 8.39278e-07 6.79416e-05 
0 0 0 1.03011 -21.0742 -5.97352 0 437 1254 0.0138151 -0.0711073 0.270226 1.69419e-07 1.35276e-05 
0 0 0 -2.5291 20.2801 -15.5307 0 409 632 -0.00113759 0.110966 0.0579555 4.22397e-07 3.39006e-05 
0 0 0 0.777343 21.3973 -16.864 0 409 2321 0.00259944 0.147187 0.0766394 5.5377e-07 4.45641e-05 
0 0 0 5.1603 35.4639 -8.96494 0 405 2183 -0.0183038 -0.405262 -1.08234 2.04948e-06 0.000170347 
0 0 0 -1.29673 -8.30889 -30.1629 0 424 1306 -9.91143e-05 0.00179202 -0.00143158 8.64663e-07 7.00339e-05 
0 0 0 2.14724 -6.75811 -24.4823 0 424 1289 0.0076325 -0.152865 -0.0115226 1.06696e-06 8.6789e-05 
0 0 0 0.108925 -3.97322 -28.773 0 423 1208 0.0315167 -0.917147 0.693142 1.44213e-06 0.000118257 
0 0 0 -0.864114 19.4512 -20.5935 0 412 1219 -0.00595212 0.122178 0.0598184 1.3442e-07 1.07256e-05 
0 0 0 0.0592591 11.2744 -28.4491 0 417 1787 0.0559296 -0.910185 -0.227998 1.22987e-06 0.00010039 
0 0 0 3.41611 -6.96421 44.2174 0 533 996 0.0119195 -0.197321 0.136281 7.54138e-07 6.09409e-05 
0 0 0 0.386895 -26.4393 21.0398 0 374 2131 -0.0023026 0.433891 0.433831 1.34001e-06 0.00010964 
0 0 0 1.151 -32.755 26.3785 0 374 604 0.00314479 0.394277 0.374885 1.2835e-06 0.000104888 
0 0 0 -8.64064 -40.9525 7.27655 0 519 578 -0.0779863 0.0652295 0.163654 7.04745e-07 5.68909e-05 
0 0 0 -2.34684 -38.6941 4.02812 0 518 1580 0.00706742 -0.117533 0.261071 1.55374e-06 0.000127721 
0 0 0 -2.36476 -23.0016 11.5706 0 372 10 0.0977232 0.745432 1.13504 2.08264e-06 0.000173234 
0 0 0 -1.47891 -36.8448 21.1457 0 372 96 -0.0254585 0.445332 0.666529 1.80291e-06 0.000149023 
0 0 0 0.5661 -30.2537 0.663008 0 364 2278 0.027048 -0.0166378 0.439884 9.50635e-07 7.71367e-05 
0 0 0 3.22596 25.3487 7.30695 0 551 1205 0.0344492 0.144755 -0.843648 1.5681e-06 0.000128942 
0 0 0 -0.210936 40.3621 18.4651 0 549 1737 0.00143924 0.447385 -1.45687 2.46703e-06 0.000207036 
0 0 0 0.808675 27.8494 -8.72766 0 402 586 -0.0879921 0.48616 1.53741 1.25443e-06 0.000102448 
0 0 0 3.35932 27.892 12.0236 0 398 1942 0.0357711 0.300573 -0.768574 1.84628e-06 0.000152756 
0 0 0 2.80877 -42.4244 -16.9405 0 436 2260 -0.0026848 -0.37073 1.77438 2.39648e-06 0.000200784 
0 0 0 -0.636139 46.9017 -16.5458 0 408 2222 -0.0547199 -0.737507 -1.38222 1.60119e-06 0.000131759 
0 0 0 -0.309416 28.643 -3.14078 0 404 82 -0.0193755 -0.0529982 -0.498308 1.43981e-06 0.000118061 