ITEM: TIMESTEP
18900000
ITEM: NUMBER OF ENTRIES
482
ITEM: BOX BOUNDS ff ff ff
-0.01 0.45
-0.15 0.15
-0.08 0.1
ITEM: ENTRIES c_pwc[1] c_pwc[2] c_pwc[3] c_pwc[4] c_pwc[5] c_pwc[6] c_pwc[7] c_pwc[8] c_pwc[9] c_pwc[10] c_pwc[11] c_pwc[12] c_pwc[13] c_pwc[14] 
0 0 0 -5.04404 29.1372 12.62 0 950 1657 0.246079 0.126833 -0.288795 3.67853e-08 2.92943e-06 
0 0 0 -10.3233 45.7735 -15.8547 0 958 1917 0.414479 -0.280196 -0.81616 3.16153e-07 2.53189e-05 
0 0 0 5.76275e-29 2.43269e-19 6.72703e-12 0 850 393 -1.42768e-28 8.21841e-05 28.6382 1.1781e-05 0.0015 
0 0 0 -2.46971e-116 -1.42188e-19 -3.93784e-12 0 850 1145 1.01627e-113 8.21841e-05 28.6382 1.1781e-05 0.0015 
0 0 0 4.52678e-10 -1.66908e-09 3.36596e-12 0 850 465 0.917898 0.249005 28.747 1.17929e-05 0.0015038 
0 0 0 6.13007e-16 6.8446e-16 6.51544e-14 0 850 665 0.311293 0.828017 28.7511 1.17933e-05 0.00150394 
0 0 0 5.76275e-29 2.43269e-19 6.72703e-12 0 885 393 1.30129e-29 8.21841e-05 -28.6382 1.1781e-05 0.0015 
0 0 0 4.52678e-10 -1.66908e-09 3.36596e-12 0 885 465 0.620808 0.168437 -28.5295 1.1769e-05 0.0014962 
0 0 0 6.13007e-16 6.8446e-16 6.51544e-14 0 885 665 0.236355 0.511621 -28.5254 1.17685e-05 0.00149606 
0 0 0 -2.46971e-116 -1.42188e-19 -3.93784e-12 0 884 1145 -1.0151e-113 8.21841e-05 -28.6382 1.1781e-05 0.0015 
0 0 0 0.999155 11.9021 -14.6822 0 962 80 -0.0388963 -0.157194 -0.174626 1.11463e-06 9.0759e-05 
0 0 0 0.00215783 -0.0745462 -0.00949312 0 884 214 -0.000543457 0.000210747 0.00116578 1.44262e-08 1.14833e-06 
0 0 0 0.355703 0.153792 -0.064004 0 884 1335 -0.00838979 -0.00209099 0.0172929 1.00405e-07 8.00598e-06 
0 0 0 -0.067363 -0.0352603 -0.0110842 0 854 2112 0.0207831 -0.00514002 -0.00903131 1.17153e-07 9.34458e-06 
0 0 0 0.221208 0.358075 -0.186489 0 854 147 0.0224272 -0.00106623 -0.00332792 2.70268e-07 2.16242e-05 
0 0 0 0.0154454 -0.117308 0.049212 0 854 1293 0.000691856 0.00472977 -0.00149762 2.95645e-08 2.35405e-06 
0 0 0 0.0811395 0.232156 0.0959307 0 854 1363 0.00218385 0.00139507 -0.0034521 9.19266e-08 7.32871e-06 
0 0 0 0.0101153 0.15845 0.0757423 0 854 235 0.00892152 -0.00339035 -0.00289894 9.24868e-08 7.37346e-06 
0 0 0 0.00693672 -0.0551859 0.0326553 0 854 1121 -0.00018088 1.50234e-05 -8.91833e-05 6.24177e-10 4.96711e-08 
0 0 0 0.0611338 0.00213796 0.0177015 0 853 1973 -0.00105951 -0.00175308 -0.000241118 2.75895e-08 2.19671e-06 
0 0 0 0.0484299 -0.0321384 0.150228 0 852 1654 9.16132e-08 0.00116565 0.000187146 1.77536e-08 1.41329e-06 
0 0 0 0.164361 -0.0198131 0.134446 0 852 2216 -0.000664004 -0.0014689 -0.000313873 4.17736e-08 3.327e-06 
0 0 0 0.167626 -0.0198859 -0.0341445 0 852 795 3.22593e-05 0.000332439 -7.47296e-06 1.90965e-08 1.52023e-06 
0 0 0 -0.002753 -0.0836383 -0.00126341 0 894 620 -0.000214809 1.54687e-05 -0.000546089 1.46502e-08 1.16616e-06 
0 0 0 -0.000749204 -0.0566028 0.00050565 0 894 1051 -1.04864e-05 0.000163778 -8.96582e-05 3.38516e-09 2.69401e-07 
0 0 0 0.00335598 -0.0438041 -0.00270114 0 894 1685 -2.58531e-06 1.74929e-05 4.19102e-05 7.08699e-11 5.63965e-09 
0 0 0 0.00146016 -0.0635892 -0.00345975 0 894 1474 -0.000157121 4.80981e-05 -0.000522623 1.63647e-08 1.30269e-06 
0 0 0 -0.00709565 -0.0343855 -6.08522e-05 0 894 2209 7.49081e-05 3.41512e-05 -0.00047048 1.22378e-08 9.74087e-07 
0 0 0 0.0065234 -0.108969 -0.015117 0 894 167 0.000290248 0.000894182 -0.00415675 6.22123e-08 4.95684e-06 
0 0 0 -0.002753 -0.0836383 -0.00126341 0 855 620 0.00059258 0.000295661 -1.92941e-05 1.1628e-08 9.25537e-07 
0 0 0 -0.0129865 -0.108091 0.000394096 0 855 701 0.00181107 -0.000442963 -0.00175617 1.98894e-08 1.58337e-06 
0 0 0 -0.0158753 -0.0619981 0.035775 0 855 1443 0.00693588 0.00345172 -0.00033503 6.3289e-08 5.04273e-06 
0 0 0 0.00610103 -0.0743775 0.0270675 0 855 17 -0.000183333 4.85949e-06 2.05248e-05 3.1929e-09 2.54099e-07 
0 0 0 -0.000273659 -0.092199 0.0245938 0 855 2231 0.00131179 0.000519071 -0.000400949 2.38951e-08 1.90241e-06 
0 0 0 -6.06866e-05 -0.0429324 -0.00417918 0 855 1854 0.00228387 0.000439441 -0.000804709 3.48539e-08 2.77551e-06 
0 0 0 -0.0154574 -0.074377 0.0407759 0 855 2153 0.00214452 0.00076335 -0.000753019 2.18886e-08 1.7426e-06 
0 0 0 -0.00404141 -0.0693465 -0.00279417 0 855 921 0.000915534 0.000445409 0.000105648 1.54649e-08 1.23104e-06 
0 0 0 -0.000834074 -0.0539386 -0.00736196 0 855 2155 0.000524467 4.49764e-05 -0.000151322 1.22952e-08 9.78663e-07 
0 0 0 0.00406693 -0.0847313 0.0317381 0 854 2261 0.000557392 0.00604998 -0.00414707 1.74735e-08 1.39098e-06 
0 0 0 -0.00135271 -0.0639772 0.0507575 0 854 976 0.00977827 0.00077768 -0.00139547 9.1122e-08 7.26445e-06 
0 0 0 0.00180601 -0.0264442 0.0799289 0 854 250 0.0029587 0.00108227 4.96329e-05 4.27612e-08 3.40573e-06 
0 0 0 0.846808 0.347258 24.1326 0 938 2141 0.121869 0.755955 0.454767 4.22761e-07 3.39301e-05 
0 19.57 109.404 -0.247383 18.8068 108.852 1 2685 1116 3.74174 23.7325 0.656454 1.1012e-05 0.0012966 
0 19.8807 107.919 -0.247383 18.8068 108.852 1 2698 1116 -21.6444 -16.9415 -20.3417 1.20566e-05 0.00159718 
0 18.489 108.17 -0.247383 18.8068 108.852 1 2717 1116 18.2668 -2.47909 18.9368 1.1446e-05 0.00140283 
0 15.7589 84.4221 -1.57788e-05 14.7199 81.1956 1 2721 753 0.0607758 0.233848 0.0249372 7.17216e-07 5.79127e-05 
0 15.5557 84.642 -1.57788e-05 14.7199 81.1956 1 2722 753 0.026067 0.14951 0.0243183 5.30668e-07 4.26847e-05 
0 15.0214 84.7385 -1.57788e-05 14.7199 81.1956 1 2703 753 -0.0144769 0.069684 0.0234999 3.30119e-07 2.64449e-05 
0 14.7541 84.6034 -1.57788e-05 14.7199 81.1956 1 2702 753 -0.0202887 0.112009 0.0366066 4.49626e-07 3.6106e-05 
0 13.5903 84.9698 -1.57788e-05 14.7199 81.1956 1 2724 753 0.00143401 0.0450256 0.0412867 2.88336e-07 2.30782e-05 
0 17.2714 84.0651 -1.57788e-05 14.7199 81.1956 1 134 753 0.0160241 0.262834 -0.0990903 8.1152e-07 6.56564e-05 
0 16.967 84.2855 -1.57788e-05 14.7199 81.1956 1 120 753 0.0445391 0.198974 -0.340834 9.89773e-07 8.03788e-05 
0 13.3575 84.8522 -1.57788e-05 14.7199 81.1956 1 2726 753 0.0187373 0.0891184 0.00405383 3.75781e-07 3.01307e-05 
0 17.2644 83.9996 -1.57788e-05 14.7199 81.1956 1 136 753 0.0166285 0.208761 -0.518755 1.23716e-06 0.000101001 
0 17.3086 83.6229 -1.57788e-05 14.7199 81.1956 1 137 753 -0.00231497 0.00628716 -0.00219089 6.86418e-08 5.46982e-06 
0 17.2899 83.6219 -1.57788e-05 14.7199 81.1956 1 138 753 -0.00230289 0.00616289 -0.00212127 6.77553e-08 5.39908e-06 
0 15.7461 84.2708 -1.57788e-05 14.7199 81.1956 1 123 753 -0.0535126 0.398633 -0.0568263 1.00442e-06 8.15932e-05 
0 15.7927 84.3505 -1.57788e-05 14.7199 81.1956 1 2650 753 0.0836615 0.232415 0.0324387 7.29255e-07 5.88995e-05 
0 15.3297 84.1626 -1.57788e-05 14.7199 81.1956 1 124 753 -0.101452 0.384668 0.0208834 9.91725e-07 8.05407e-05 
0 15.3135 84.1551 -1.57788e-05 14.7199 81.1956 1 125 753 -0.104217 0.38342 0.0251259 9.91328e-07 8.05078e-05 
0 15.1311 84.2151 -1.57788e-05 14.7199 81.1956 1 2649 753 0.0925779 0.505123 -0.0727251 1.17779e-06 9.6031e-05 
0 13.5732 84.8919 -1.57788e-05 14.7199 81.1956 1 2644 753 -0.00809336 0.227063 -0.0329403 6.91125e-07 5.57757e-05 
0 14.8334 84.4227 -1.57788e-05 14.7199 81.1956 1 2647 753 0.0542313 0.454517 -0.0763383 1.09553e-06 8.91675e-05 
0 14.7478 84.5695 -1.57788e-05 14.7199 81.1956 1 126 753 -0.0220128 0.113147 0.0367396 4.53119e-07 3.63891e-05 
0 13.2942 84.7682 -1.57788e-05 14.7199 81.1956 1 2672 753 -0.000737732 0.3275 -0.0253903 8.74208e-07 7.08211e-05 
0 13.3076 84.8411 -1.57788e-05 14.7199 81.1956 1 2674 753 0.0156987 0.0916868 0.000735726 3.80855e-07 3.05407e-05 
0 12.9872 84.6805 -1.57788e-05 14.7199 81.1956 1 2673 753 -0.00265976 0.214247 -0.000438536 6.6045e-07 5.32663e-05 
0 1.67742 90.1451 -0.061939 2.41628 90.0747 1 2713 2346 20.2428 5.09725 19.8941 1.17984e-05 0.00150556 
0 3.06913 89.8939 -0.061939 2.41628 90.0747 1 2694 2346 -20.2429 -2.10697 -19.9761 1.17634e-05 0.00149444 
0 17.2134 84.1028 -1.57788e-05 14.7199 81.1956 1 2707 753 0.0268169 0.259801 -0.0910524 8.02197e-07 6.48895e-05 
0 11.9884 74.7702 -4.48275e-05 12.9062 74.6195 1 92 303 -0.00848722 0.00468176 -0.000907091 8.191e-08 6.52885e-06 
0 9.13807 75.2998 -4.48275e-05 12.9062 74.6195 1 85 303 -0.0117052 0.0247062 0.0318441 2.24726e-07 1.79638e-05 
0 10.1755 75.0858 -4.48275e-05 12.9062 74.6195 1 63 303 -0.090267 0.0881027 0.0808101 5.13113e-07 4.12578e-05 
0 9.2255 75.3111 -4.48275e-05 12.9062 74.6195 1 86 303 -0.0073951 0.0122861 0.0151929 1.41376e-07 1.12822e-05 
0 11.8911 74.8028 -4.48275e-05 12.9062 74.6195 1 91 303 -0.00949505 0.00493142 0.000770564 9.07763e-08 7.23684e-06 
0 0 0 0.849249 32.9112 -12.4162 0 956 974 -0.702712 0.220888 0.295206 1.4945e-06 0.000122692 
0 0 0 0.849249 32.9112 -12.4162 0 957 974 -0.370253 0.0648887 -0.170605 1.54778e-06 0.000127214 
0 74.3692 -16.994 0.0131231 74.828 -13.9099 1 1856 405 0.00805299 -0.00382568 0.000212388 7.64969e-08 6.09673e-06 
0 74.4968 -16.287 0.0131231 74.828 -13.9099 1 1851 405 0.187575 -0.113612 0.128522 7.38606e-07 5.96664e-05 
0 74.5667 -15.8998 0.0131231 74.828 -13.9099 1 1852 405 0.129905 -0.0487295 0.074533 5.40011e-07 4.34446e-05 
0 74.6603 -15.3818 0.0131231 74.828 -13.9099 1 1879 405 0.142814 -0.0359581 0.0769128 5.60598e-07 4.51199e-05 
0 74.2554 -17.1626 0.0131231 74.828 -13.9099 1 516 405 0.0249638 -0.0146353 0.000925465 1.7147e-07 1.3692e-05 
0 74.2362 -16.2334 0.0131231 74.828 -13.9099 1 476 405 0.196497 -0.122793 0.175776 7.94257e-07 6.42365e-05 
0 74.1639 -15.9242 0.0131231 74.828 -13.9099 1 477 405 0.161599 -0.0753681 0.142318 6.75092e-07 5.44637e-05 
0 74.5036 -15.6007 0.0131231 74.828 -13.9099 1 478 405 0.161402 -0.0570732 0.100274 6.29043e-07 5.07003e-05 
0 74.695 -14.6021 0.0131231 74.828 -13.9099 1 485 405 0.372469 -0.101073 0.205047 1.05636e-06 8.59076e-05 
0 74.8911 -13.5159 0.0131231 74.828 -13.9099 1 486 405 0.00431709 0.00168187 0.00172174 6.4152e-08 5.11158e-06 
0 74.982 -12.8741 0.0131231 74.828 -13.9099 1 487 405 0.0142037 0.0153191 0.0182613 1.41357e-07 1.12807e-05 
0 0 0 3.37932e-16 -4.98607e-16 6.52551e-14 0 885 23 -0.162426 -0.68726 -28.6462 1.17818e-05 0.00150028 
0 0 0 -4.52678e-10 1.66908e-09 3.37186e-12 0 885 765 -0.917898 -0.24884 -28.747 1.17929e-05 0.0015038 
0 0 0 0.0843778 -0.743548 0.0831301 0 885 2337 9.28663e-05 0.000259089 0.0392713 2.699e-07 2.15946e-05 
0 0 0 5.67973e-16 -2.40942e-15 6.51998e-14 0 885 1484 0.176343 0.75705 -28.5388 1.177e-05 0.00149653 
0 0 0 -1.12148e-15 -1.07477e-16 6.52906e-14 0 885 124 -0.388839 -1.00648 -28.7372 1.17918e-05 0.00150346 
0 0 0 3.60884e-168 -8.12629e-20 6.727e-12 0 885 1052 4.55097e-164 8.21841e-05 -28.6382 1.1781e-05 0.0015 
0 0 0 -4.4192e-18 4.13186e-18 -2.8043e-12 0 885 1441 7.84044e-18 8.21841e-05 -28.6382 1.1781e-05 0.0015 
0 0 0 7.45273e-12 7.77801e-12 7.55593e-12 0 885 173 -2.35083e-11 8.21841e-05 -28.6382 1.1781e-05 0.0015 
0 0 0 -2.94558e-19 -2.22221e-18 1.69038e-12 0 885 874 -1.0812e-17 8.21841e-05 -28.6382 1.1781e-05 0.0015 
0 0 0 5.60148e-06 1.64684e-05 6.88098e-08 0 885 281 1.0466 -0.265098 -28.4435 1.17594e-05 0.00149319 
0 0 0 5.67093e-06 -2.88769e-05 -1.21897e-07 0 885 2235 -1.2031 0.676362 -28.8841 1.18077e-05 0.00150858 
0 0 0 4.81917e-44 8.11798e-20 5.61315e-12 0 885 1154 2.48216e-44 8.21841e-05 -28.6382 1.1781e-05 0.0015 
0 0 0 -1.12722e-05 1.24083e-05 5.30854e-08 0 885 171 -0.231032 -0.188586 -28.5875 1.17754e-05 0.00149823 
0 0 0 3.37932e-16 -4.98607e-16 6.52551e-14 0 850 23 -0.15764 -0.666996 28.6302 1.17801e-05 0.00149972 
0 0 0 -4.52678e-10 1.66908e-09 3.37186e-12 0 850 765 -0.620808 -0.168273 28.5295 1.1769e-05 0.0014962 
0 0 0 5.67973e-16 -2.40942e-15 6.51998e-14 0 850 1484 0.273944 1.01422 28.7376 1.17918e-05 0.00150347 
0 0 0 -1.12148e-15 -1.07477e-16 6.52906e-14 0 850 124 -0.289518 -0.749435 28.5393 1.17701e-05 0.00149654 
0 0 0 3.60884e-168 -8.12629e-20 6.727e-12 0 850 1052 -4.55131e-164 8.21841e-05 28.6382 1.1781e-05 0.0015 
0 0 0 -4.4192e-18 4.13186e-18 -2.8043e-12 0 850 1441 -1.16605e-17 8.21841e-05 28.6382 1.1781e-05 0.0015 
0 0 0 7.45273e-12 7.77801e-12 7.55593e-12 0 850 173 3.72508e-11 8.21841e-05 28.6382 1.1781e-05 0.0015 
0 0 0 -2.94558e-19 -2.22221e-18 1.69038e-12 0 850 874 5.08158e-18 8.21841e-05 28.6382 1.1781e-05 0.0015 
0 0 0 5.60148e-06 1.64684e-05 6.88098e-08 0 850 281 1.54936 -0.392466 28.8333 1.18022e-05 0.00150681 
0 0 0 5.67093e-06 -2.88769e-05 -1.21897e-07 0 850 2235 -0.815439 0.453055 28.393 1.17538e-05 0.00149142 
0 0 0 -1.12722e-05 1.24083e-05 5.30854e-08 0 850 171 -0.346393 -0.282774 28.6889 1.17865e-05 0.00150177 
0 0 0 4.81917e-44 8.11798e-20 5.61315e-12 0 851 1154 5.1347e-45 8.21841e-05 28.6382 1.1781e-05 0.0015 
0 0 0 11.6441 22.983 -28.6732 0 962 103 -0.319947 -0.383423 -0.370774 1.9402e-06 0.000160866 
0 0 0 0.070837 -0.354785 -0.00426472 0 895 337 0.00181751 0.00864392 2.44727e-05 6.43901e-09 5.12466e-07 
0 0 0 11.6441 22.983 -28.6732 0 963 103 0.774504 -1.54868 -1.07055 8.61643e-07 6.97848e-05 
0 0 0 0.0254221 -0.0142206 0.0690929 0 853 937 -0.00025547 0.000346607 7.92204e-05 1.18313e-08 9.41724e-07 
0 0 0 0.0600911 0.00228667 0.0281771 0 853 2225 0.000283719 -0.00064096 0.000149034 1.28528e-08 1.02306e-06 
0 0 0 0.0808174 -0.00684263 0.15188 0 853 1257 -9.7402e-05 0.000196443 -1.26608e-05 4.45112e-09 3.5424e-07 
0 0 0 0.0646588 0.00561911 0.139344 0 853 1220 -0.00144951 -0.00784626 -0.0018849 7.59736e-08 6.05495e-06 
0 0 0 0.016148 -0.0186 0.00613287 0 853 676 7.19793e-05 0.000144058 -2.67751e-06 2.08994e-08 1.66381e-06 
0 0 0 0.110236 0.00281685 0.120693 0 853 993 2.01879e-06 -0.000409396 -0.00306209 8.30418e-09 6.60935e-07 
0 0 0 0.0180642 0.0151092 0.0345561 0 853 1687 0.000132983 -0.00146852 -0.000722117 1.40677e-08 1.11978e-06 
0 0 0 -0.00440384 0.00315896 0.0206867 0 853 1016 -0.00161121 -0.00352188 -0.000710562 4.43743e-08 3.53432e-06 
0 0 0 -0.0126733 0.0116852 0.014678 0 853 299 -0.00110409 -0.00382328 0.00156056 4.11854e-08 3.28012e-06 
0 0 0 -1.49119e-87 8.12143e-20 -1.69043e-12 0 884 331 6.24919e-86 8.21841e-05 -28.6382 1.1781e-05 0.0015 
0 0 0 0.418097 0.112271 -0.00214613 0 884 1499 -0.00140173 -0.00158664 0.00239785 3.44582e-08 2.74398e-06 
0 0 0 0.453536 0.429272 0.0129924 0 884 1594 -0.00364872 -0.00306348 0.0095285 9.79828e-08 7.81249e-06 
0 0 0 0.00644644 -0.0940102 -0.048394 0 884 1806 -0.000881618 -0.00401016 0.00287075 9.32229e-09 7.41982e-07 
0 0 0 0.177947 0.120193 0.0204902 0 884 1643 -0.00328426 -0.000886283 0.00098556 3.72175e-08 2.96387e-06 
0 0 0 0.0315123 0.0858538 -0.0132854 0 884 967 -0.000455322 -0.000764229 0.00203647 2.22746e-08 1.77334e-06 
0 0 0 0.031637 0.0318563 -0.00661252 0 884 1492 -0.000464491 -0.00062316 0.00377567 4.42367e-08 3.52334e-06 
0 0 0 0.010065 0.0166565 -0.00520668 0 884 1679 -0.000816679 -0.000988664 0.0025647 3.38852e-08 2.69832e-06 
0 0 0 -0.00313032 -0.020593 -0.0166279 0 884 498 0.000945521 0.00112413 0.000606936 1.78199e-09 1.41812e-07 
0 0 0 0.751421 -1.08794 0.0215171 0 885 619 -0.00239229 0.0118784 0.0720688 3.55259e-07 2.84733e-05 
0 0 0 -1.49119e-87 8.12143e-20 -1.69043e-12 0 850 331 -6.29072e-86 8.21841e-05 28.6382 1.1781e-05 0.0015 
0 0 0 0.0337451 -0.00337777 0.0965728 0 852 1229 -1.37473e-05 -0.000155989 -7.67734e-05 9.73695e-09 7.74992e-07 
0 0 0 0.00157637 -0.108065 0.00100422 0 894 1249 -4.19694e-05 8.09882e-05 -0.000182434 5.33312e-09 4.24441e-07 
0 0 0 -0.000403574 -0.10662 -0.0030758 0 894 358 0.000741022 0.00106197 -0.00258989 4.02007e-08 3.20163e-06 
0 0 0 -0.0326466 -0.128158 -0.00375447 0 894 18 0.00268532 0.000465855 -0.00377533 5.13579e-08 4.09111e-06 
0 0 0 0.0369755 -0.0978688 0.00147452 0 894 1693 -0.000251547 -0.00122702 -0.003354 4.40466e-08 3.5082e-06 
0 0 0 -0.0022644 -0.0728829 0.00132074 0 894 1537 0.000113979 0.000504407 -0.00220323 3.30797e-08 2.63414e-06 
0 0 0 0.000719269 -0.0597873 0.000412146 0 894 1437 0.000573323 -0.000789585 -0.00686501 7.23771e-08 5.76791e-06 
0 0 0 0.0282817 -0.0552978 -0.00152915 0 894 1937 -0.00214317 -0.000173823 -0.0129519 1.11669e-07 8.90616e-06 
0 0 0 0.0351439 -0.0901291 0.00513765 0 894 1999 0.00102479 0.000959362 -0.00280755 3.63342e-08 2.89348e-06 
0 0 0 0.0158626 -0.0409961 -0.009267 0 894 1048 9.60075e-06 3.08869e-05 6.46892e-05 1.19232e-08 9.49043e-07 
0 0 0 0 4.97667e-23 -2.24229e-12 0 894 272 1.77034e-305 8.21841e-05 28.6382 1.1781e-05 0.0015 
0 0 0 0 4.97667e-23 -2.24229e-12 0 849 272 -1.77034e-305 8.21841e-05 -28.6382 1.1781e-05 0.0015 
0 0 0 0.0162174 -0.0660149 0.000730023 0 895 1834 -0.00352318 0.00189989 -0.00728249 7.50953e-08 5.98485e-06 
0 0 0 -0.00709269 -0.14432 -0.00100849 0 895 2129 0.000237129 0.000275914 -0.000727623 1.71987e-08 1.3691e-06 
0 0 0 0.0325917 -0.0791702 0.00496103 0 895 1620 -0.00117156 -0.000627085 -0.00322687 4.04347e-08 3.22029e-06 
0 0 0 0.0189793 -0.160559 -0.00594368 0 895 2094 -0.00160418 0.00267058 -2.19939e-05 9.80532e-09 7.80434e-07 
0 0 0 -0.0327514 -0.110416 0.0020163 0 895 1340 -2.44888e-05 0.000325316 -0.00123046 2.14405e-08 1.70691e-06 
0 0 0 2.4493 -56.924 -25.5612 0 915 1878 0.0626976 -0.0738269 -0.322491 3.02586e-07 2.42258e-05 
0 0 0 -3.06031 -34.2189 -32.4962 0 913 2147 -0.769925 -0.721184 0.820928 7.68456e-07 6.21164e-05 
0 0 0 2.4493 -56.924 -25.5612 0 916 1878 -0.822438 -0.502455 1.06168 2.73232e-07 2.18626e-05 
0 0 0 -4.11815e-08 -2.00353e-12 -2.65311e-12 0 961 428 -5.36171e-17 9.45454 12.5197 9.45155e-06 0.00100427 
0 0 0 -8.43766 24.4023 0.0845213 0 955 1957 0.210026 -0.0614715 -0.641504 8.17836e-07 6.61761e-05 
0 0 0 -4.11815e-08 -2.00353e-12 -2.65311e-12 0 753 428 5.76997e-17 -9.45437 -12.5197 9.45152e-06 0.00100427 
0 84.327 -16.6713 -0.0120922 81.1838 -14.4637 1 526 1181 -0.114347 -0.0535028 -0.225935 7.51742e-07 6.07442e-05 
0 84.388 -16.7014 -0.0120922 81.1838 -14.4637 1 527 1181 -0.0283515 -0.0294096 -0.190709 6.24641e-07 5.03409e-05 
0 84.3487 -16.1858 -0.0120922 81.1838 -14.4637 1 541 1181 0.0607053 -0.304569 -0.441427 1.21205e-06 9.88974e-05 
0 83.2117 -15.7306 -0.0120922 81.1838 -14.4637 1 546 1181 -0.0111789 0.000777589 -0.0126127 1.30907e-07 1.04445e-05 
0 84.3645 -15.5604 -0.0120922 81.1838 -14.4637 1 523 1181 -0.0587559 -0.0193754 -0.443622 1.07362e-06 8.73431e-05 
0 83.4219 -14.5733 -0.0120922 81.1838 -14.4637 1 544 1181 -0.0253678 0.0150968 -0.0242822 2.15791e-07 1.72465e-05 
0 84.7591 -15.4277 -0.0120922 81.1838 -14.4637 1 1870 1181 -0.135867 -0.0489759 -0.147112 6.60319e-07 5.32555e-05 
0 84.7714 -15.8 -0.0120922 81.1838 -14.4637 1 1871 1181 -0.144965 -0.0292499 -0.204371 7.37827e-07 5.96025e-05 
0 84.6821 -15.3077 -0.0120922 81.1838 -14.4637 1 1869 1181 -0.012734 0.00467256 -0.359545 9.43221e-07 7.65231e-05 
0 84.3946 -14.8599 -0.0120922 81.1838 -14.4637 1 1868 1181 -0.0635368 -0.144601 -0.663595 1.40879e-06 0.00011544 
0 85.049 -14.5851 -0.0120922 81.1838 -14.4637 1 1892 1181 0.00297989 0.0146402 -0.0338375 2.04804e-07 1.63648e-05 
0 84.8116 -13.2155 -0.0120922 81.1838 -14.4637 1 1829 1181 -0.0309299 -0.0604309 -0.462253 1.09812e-06 8.9383e-05 
0 85.0624 -14.1878 -0.0120922 81.1838 -14.4637 1 1893 1181 -0.0543602 0.0809172 -0.202737 6.80467e-07 5.49035e-05 
0 84.6856 -13.2477 -0.0120922 81.1838 -14.4637 1 1885 1181 -0.0366865 -0.0659129 -0.6377 1.35143e-06 0.000110602 
0 83.8457 -12.0866 -0.0120922 81.1838 -14.4637 1 1834 1181 -0.0172834 0.129434 -0.0735457 5.22653e-07 4.20331e-05 
0 83.8796 -12.0769 -0.0120922 81.1838 -14.4637 1 1835 1181 -0.014243 0.127197 -0.073806 5.17981e-07 4.16534e-05 
0 84.2392 -12.5525 -0.0120922 81.1838 -14.4637 1 1887 1181 -0.0122964 0.0362034 -0.0217169 2.29222e-07 1.83249e-05 
0 84.6541 -16.4499 -0.0120922 81.1838 -14.4637 1 1874 1181 0.000228574 -0.00056791 -0.00965469 8.93797e-08 7.1253e-06 
0 84.7579 -16.1973 -0.0120922 81.1838 -14.4637 1 1873 1181 -0.00340386 0.000544283 -0.0517761 2.62181e-07 2.09737e-05 
0 84.3583 -16.8461 -0.0120922 81.1838 -14.4637 1 530 1181 0.00114689 -0.0107554 -0.0581809 2.86747e-07 2.29503e-05 
0 84.8288 -13.9536 -0.0120922 81.1838 -14.4637 1 1826 1181 -0.00127199 0.0923662 -0.192952 6.56905e-07 5.29765e-05 
0 84.8505 -13.5051 -0.0120922 81.1838 -14.4637 1 1828 1181 -0.0556118 -0.0552151 -0.469807 1.11175e-06 9.05189e-05 
0 84.7393 -14.0844 -0.0120922 81.1838 -14.4637 1 1842 1181 0.0185141 0.075572 -0.15361 5.68889e-07 4.5795e-05 
0 84.84 -13.2825 -0.0120922 81.1838 -14.4637 1 1830 1181 -0.0389759 -0.0646167 -0.449868 1.08105e-06 8.79616e-05 
0 84.8586 -13.4899 -0.0120922 81.1838 -14.4637 1 1831 1181 -0.0595336 -0.0566481 -0.466169 1.10731e-06 9.01486e-05 
0 0 0 2.89398 -20.1734 -20.5403 0 911 2255 -0.0306062 -0.431788 0.389451 1.66173e-06 0.000136923 
0 0 0 -1.18253e-08 2.52764e-09 -1.34894e-09 0 963 716 -0.830145 4.58043 13.3724 8.75183e-06 0.00089809 
0 0 0 -2.94709 15.8416 -13.3047 0 963 165 0.0144227 -0.222449 -0.240368 1.73032e-07 1.38172e-05 
0 0 0 -1.18253e-08 2.52764e-09 -1.34894e-09 0 751 716 0.624964 -4.87192 -8.98341 7.47112e-06 0.000726474 
0 0 0 -1.18253e-08 2.52764e-09 -1.34894e-09 0 752 716 0.205181 0.291648 -4.38896 4.72524e-06 0.000420155 
0 0 0 0.000934491 -0.191255 0.0543198 0 891 496 -0.00161315 0.000631971 -0.000501176 2.69423e-08 2.14515e-06 
0 0 0 -0.0184254 0.0323269 -0.00768161 0 889 1545 -0.015912 -0.00691621 0.00393242 1.37002e-07 1.09322e-05 
0 0 0 0.0098432 -0.236567 0.0275362 0 888 885 -0.00179741 0.000330209 -0.00222136 2.21222e-08 1.7612e-06 
0 0 0 0.00305139 -0.128917 0.0687209 0 888 198 -0.0602746 0.00216268 0.00238352 3.06356e-07 2.45295e-05 
0 0 0 -0.0171574 -0.238548 0.058234 0 888 650 -0.00163229 -0.000120251 -0.000102285 4.13638e-08 3.29434e-06 
0 0 0 0.0449777 0.000612986 0.0524365 0 888 305 -0.00784859 0.00207536 -0.00333061 5.23012e-08 4.16634e-06 
0 0 0 -0.00749684 -0.0862912 0.0522654 0 888 28 -0.00218478 0.00152679 -0.000120392 3.95242e-08 3.14771e-06 
0 0 0 -0.0125751 -0.00836645 0.130665 0 888 1337 -0.00212793 -0.000468272 -0.000282428 4.27774e-08 3.40702e-06 
0 0 0 -0.0243706 -0.0195105 0.108789 0 888 1971 -0.0023288 -0.00012164 5.1166e-05 5.33571e-08 4.25054e-06 
0 0 0 0.0174903 -0.098344 -0.0186572 0 888 1564 -0.016236 0.00753591 0.00301867 1.1939e-07 9.52346e-06 
0 0 0 -0.00541277 -0.0206279 0.0823356 0 888 892 -0.00100776 0.000238719 -0.00638363 2.48651e-08 1.97968e-06 
0 0 0 -0.0111826 -0.0782652 -0.0544585 0 888 1659 -0.0226725 -0.0016316 -0.000437568 1.66471e-07 1.32915e-05 
0 0 0 -3.31638e-05 -0.0328451 0.0790669 0 888 551 -0.000773618 -0.00107461 0.000679745 1.69943e-08 1.35282e-06 
0 0 0 -0.00577405 -0.00658039 0.0576247 0 888 2294 -0.000316105 2.50144e-05 -0.000167401 1.52778e-08 1.21614e-06 
0 0 0 -0.000764399 -0.00188635 0.0662206 0 888 1188 -0.00015737 0.000451732 -0.000479925 6.76202e-09 5.38177e-07 
0 0 0 -0.0116909 -0.0140296 0.0330436 0 888 1135 -0.00445865 0.000625114 -0.000175015 6.22989e-08 4.96375e-06 
0 0 0 0.00325351 -0.015118 0.0202272 0 888 1769 -0.00236017 0.000145775 -0.00027752 3.32523e-08 2.64789e-06 
0 0 0 -0.00873775 -0.0316803 0.0285194 0 888 1042 0.000277109 -4.58202e-05 -2.41837e-05 4.62962e-09 3.68448e-07 
0 0 0 -0.0155768 -0.0249608 0.0934043 0 888 1889 -0.0037689 -0.00183566 -0.000526705 5.94088e-08 4.7332e-06 
0 0 0 -0.00283569 -0.000589945 0.0823289 0 888 2051 -0.000300787 4.95064e-05 1.61644e-05 1.20023e-08 9.55344e-07 
0 0 0 -0.00839784 -0.0699078 0.0224426 0 890 201 -0.00105273 0.000166162 -6.57759e-07 2.79478e-08 2.22525e-06 
0 0 0 -0.00490064 -0.1855 0.0677717 0 891 1641 -0.000717939 0.000279125 -0.000225717 2.0575e-08 1.63797e-06 
0 0 0 0.00441971 -0.141781 0.0206403 0 891 836 -0.00702835 0.00289669 0.000656327 7.10427e-08 5.66141e-06 
0 0 0 -0.0305971 0.0284944 0.0955109 0 887 302 -0.00547855 0.00194846 -0.000959887 8.2176e-08 6.55008e-06 
0 0 0 0.0149036 -0.0991732 0.0250656 0 893 1178 -0.00384003 -0.000108573 -0.00514173 3.9143e-08 3.11733e-06 
0 0 0 0.00812134 -0.130257 0.0112116 0 892 2009 -0.00130846 0.00198123 -0.000301364 1.74462e-08 1.3888e-06 
0 0 0 0.0149036 -0.0991732 0.0250656 0 895 1178 -0.00149094 0.00462321 -0.0110872 8.55723e-08 6.82126e-06 
0 0 0 -0.00562979 -0.0502619 0.00700987 0 888 2203 -0.00535399 0.000316755 -0.00265819 6.52024e-08 5.19539e-06 
0 0 0 0.0168211 -0.0533112 -0.00764742 0 888 1442 -0.0332571 -0.0097567 -0.00556975 1.99396e-07 1.59309e-05 
0 0 0 -0.0199259 -0.089209 0.0241621 0 888 1114 -0.00177583 -0.000750379 0.00175197 4.49112e-08 3.57712e-06 
0 0 0 0.00136113 -0.0868203 0.0293357 0 888 866 -0.000659062 0.000329453 7.15155e-06 1.39932e-08 1.11385e-06 
0 0 0 -0.00211537 -0.0749827 0.0533819 0 888 2201 -0.000614876 0.000274679 -0.000138093 1.65257e-08 1.3155e-06 
0 0 0 0.0526548 -0.0535588 0.0314296 0 888 611 -0.00775534 0.000788748 0.00280435 4.71256e-08 3.75366e-06 
0 0 0 -0.00545759 0.0221879 0.0441395 0 888 209 -0.0211101 0.00435026 9.90437e-05 1.56148e-07 1.24647e-05 
0 0 0 1.81034 -5.97659 36.3176 0 381 439 0.000604321 0.374487 0.161184 1.60601e-06 0.00013217 
0 0 0 -2.32588 -9.72515 28.5712 0 379 2049 -0.00834808 -0.166543 0.00977817 2.63802e-07 2.11041e-05 
0 0 0 -3.16722 -20.6946 24.8832 0 375 821 0.00650959 0.556166 0.468769 1.81662e-06 0.000150202 
0 0 0 0.193865 -26.0566 3.98741 0 367 944 -0.0397967 0.123025 0.462354 1.05967e-06 8.61825e-05 
0 0 0 -1.16554 23.1549 1.37671 0 401 92 0.000492301 0.0310373 -0.514908 1.43122e-06 0.000117335 
0 0 0 3.08752 26.3556 0.402696 0 401 2325 -0.00145248 -0.00257088 -0.00722594 9.10963e-07 7.38558e-05 
0 0 0 -2.42585 -35.8339 -10.6255 0 435 1381 -0.00554071 -0.0346312 -0.209947 2.60661e-07 2.08515e-05 
0 0 0 -1.96937 26.3513 -19.0758 0 409 1343 -0.0355376 -0.379155 -0.5582 1.78467e-06 0.000147456 
0 0 0 1.5731 23.7067 -5.61672 0 405 1496 0.00772403 -0.252908 -0.730403 1.49271e-06 0.000122541 
0 0 0 3.85181 -19.6595 -18.9522 0 429 2314 0.00667432 0.0528288 -0.168811 6.63619e-07 5.35254e-05 
0 0 0 -1.80742 -10.1351 -21.6859 0 425 2224 0.00570154 -0.148985 0.0119584 1.01419e-06 8.2404e-05 
0 0 0 -2.91577 -4.7948 -19.6461 0 423 2317 0.0297884 -0.405009 0.0951539 1.26104e-06 0.000103003 
0 0 0 -4.48715 -1.85196 -27.3717 0 421 1022 -0.0243337 -0.615337 0.0433719 1.60663e-06 0.000132222 
0 0 0 -4.7687 -7.1317 -26.3609 0 424 2189 -0.00893188 -0.043691 -0.0439226 8.13571e-07 6.58252e-05 
0 0 0 -1.14425 5.17363 -22.597 0 419 13 0.225985 -0.560304 -0.0740822 7.05154e-07 5.69245e-05 
0 0 0 -0.152915 -22.8226 27.6314 0 376 2248 -0.00683414 0.288028 0.235759 1.36086e-06 0.000111396 
0 0 0 2.04562 -20.7478 29.1733 0 377 73 0.00461005 1.2524 0.608914 1.82351e-06 0.000150795 
0 0 0 3.03868 21.2818 25.8167 0 392 1996 0.0107926 -0.0875412 0.157398 2.95964e-07 2.36924e-05 
0 0 0 -1.51785 9.62666 26.913 0 387 1515 -0.0171933 0.460476 -0.108005 1.57405e-06 0.000129448 
0 0 0 0.937799 -24.5717 14.08 0 372 1328 -0.0247591 0.37931 0.595988 1.628e-06 0.000134044 
0 0 0 1.45483 -30.7113 13.1154 0 370 726 0.00464043 -0.136252 -0.0862864 6.90866e-07 5.57545e-05 
0 0 0 -2.36084 27.7479 24.1173 0 395 1413 0.0264342 0.23181 -0.256895 4.09429e-08 3.26079e-06 
0 0 0 0.0667535 -23.4831 -18.6052 0 432 475 0.00313566 -0.365841 0.513581 1.51186e-06 0.000124164 
0 0 0 4.70611 -28.3954 -8.2446 0 435 1527 0.00727563 -0.031631 0.0321834 9.31466e-07 7.55507e-05 
0 0 0 7.31215 -17.236 -11.5969 0 435 1066 -0.688758 1.52587 1.35288 3.67613e-07 2.94708e-05 
0 0 0 5.96569 -11.785 -6.5388 0 433 82 -0.00709832 -0.135735 0.268177 8.99347e-07 7.28962e-05 
0 0 0 1.79974 -22.4689 -11.7384 0 433 335 0.0156763 -0.285361 0.538969 1.6027e-06 0.000131887 
0 0 0 5.55591 27.5632 -20.7365 0 410 504 0.0136917 -0.126607 -0.290319 1.45024e-06 0.000118944 
0 0 0 -0.886698 24.941 -13.1443 0 409 1427 0.0835145 -0.295105 -0.48322 4.9879e-07 4.00944e-05 
0 110.6 -17.7836 7.23093 36.8032 -3.57801 1 1721 604 0.00481501 0.0285446 -0.0873562 1.48868e-06 0.000122198 
0 0 0 -1.90846 -18.799 -27.1841 0 428 1516 -0.00483153 0.101147 -0.143217 1.20891e-07 9.64346e-06 
0 0 0 -0.632656 -3.05778 -39.7071 0 422 459 -0.0659324 -0.386516 0.023025 1.45821e-06 0.000119617 
0 0 0 1.97247 -19.3329 -26.039 0 429 1289 -0.0492383 -0.719364 0.703035 1.263e-06 0.000103167 
0 0 0 -4.19511 -13.03 -27.4232 0 425 2254 -0.0123613 0.0332467 -0.0941183 7.43679e-07 6.00826e-05 
0 0 0 -3.2758 3.01666 -30.696 0 419 2278 -0.101671 -0.662934 -0.0750329 1.73622e-06 0.000143298 
0 0 0 1.81555 14.2401 -21.3381 0 414 2342 0.00785717 -0.0186449 -0.0329474 7.47e-07 6.0355e-05 
0 0 0 1.6975 13.6691 -19.3588 0 413 1179 0.639874 -1.19765 -0.636185 2.45119e-06 0.00020563 
0 0 0 -0.322429 -6.86523 32.0327 0 533 488 -0.0487035 0.913026 0.146723 1.84661e-06 0.000152784 
0 0 0 -2.17803 -22.5875 25.7515 0 527 1127 0.0413805 0.820902 0.600176 1.96313e-06 0.000162851 
0 0 0 -3.60813 -9.75952 31.8287 0 382 1054 0.127716 0.983816 0.166215 1.21655e-06 9.92739e-05 
0 0 0 0.461873 -22.4237 28.1113 0 376 452 0.00103481 -0.141218 -0.0494958 5.50465e-08 4.38527e-06 
0 0 0 -2.83986 29.3495 27.7898 0 394 712 0.0140027 1.09979 -1.3657 2.80479e-06 0.000237273 
0 0 0 -1.892 31.3187 27.0173 0 394 1704 -0.00537546 -0.0480809 0.244505 3.54616e-07 2.84214e-05 
0 0 0 0.400595 19.8427 20.6787 0 392 1038 -0.00538187 0.621884 -0.273075 2.44747e-06 0.0002053 
0 0 0 0.0107423 -32.1249 20.9028 0 372 739 0.00592276 0.296288 0.772536 2.36086e-06 0.000197636 
0 0 0 5.02334 -28.3606 -3.66072 0 589 1651 0.0376501 -0.0992776 0.437321 1.49795e-06 0.000122984 
0 0 0 2.85045 -35.3088 -10.3309 0 587 270 0.0113297 -0.0555453 -0.181864 5.44825e-07 4.38362e-05 
0 0 0 0.628676 -27.6069 -13.2402 0 434 2148 -0.0582007 -0.340869 0.329424 1.71225e-06 0.000141244 
0 0 0 -1.70168 31.4664 -12.4121 0 406 1530 -0.0172191 0.24349 0.225715 1.14042e-06 9.291e-05 
0 0 0 -1.51337 -22.6566 -24.8662 0 581 184 0.0415589 -0.629911 0.621207 1.93374e-06 0.000160307 
0 0 0 -0.238703 -14.2087 -31.3394 0 577 1467 -0.00267377 0.0988887 -0.121046 2.4261e-07 1.94004e-05 
0 0 0 1.574 -5.49407 -41.7319 0 575 1323 -0.173538 -1.30641 0.379982 1.54292e-06 0.000126801 
0 0 0 1.81539 -2.28769 -29.6918 0 573 2275 0.00451481 -0.571473 0.0192386 1.63556e-06 0.000134689 
0 0 0 3.98344 2.8046 -32.2375 0 571 553 -0.00691367 -0.534966 -0.0965297 1.67403e-06 0.000137974 
0 0 0 -2.99821 -24.0159 -30.2527 0 430 923 0.107261 -0.521877 0.468534 1.00902e-06 8.19754e-05 
0 0 0 -2.59512 -22.423 -28.2631 0 430 2074 0.0278881 -0.86045 0.933542 1.80292e-06 0.000149024 
0 0 0 0.158016 -7.29597 -28.416 0 424 2145 -0.0190047 -0.335326 0.0422846 1.30985e-06 0.000107103 