ITEM: TIMESTEP
18600000
ITEM: NUMBER OF ENTRIES
479
ITEM: BOX BOUNDS ff ff ff
-0.01 0.45
-0.15 0.15
-0.08 0.1
ITEM: ENTRIES c_pwc[1] c_pwc[2] c_pwc[3] c_pwc[4] c_pwc[5] c_pwc[6] c_pwc[7] c_pwc[8] c_pwc[9] c_pwc[10] c_pwc[11] c_pwc[12] c_pwc[13] c_pwc[14] 
0 0 0 -1.58681 26.6948 -8.88779 0 871 527 0.485127 -0.236219 0.055116 7.51165e-07 6.06968e-05 
0 0 0 -2.16021e-21 -1.21659e-19 5.61318e-12 0 850 393 3.96139e-21 8.21841e-05 28.6382 1.1781e-05 0.0015 
0 0 0 2.25952e-12 -2.00025e-12 -3.34658e-12 0 850 1145 -7.00153e-13 8.21841e-05 28.6382 1.1781e-05 0.0015 
0 0 0 1.43978e-10 -5.31244e-10 -2.24864e-12 0 850 465 0.827448 0.224309 28.6841 1.1786e-05 0.0015016 
0 0 0 -1.96799e-10 -2.01613e-10 2.39779e-12 0 850 665 0.313894 0.826343 28.7566 1.17939e-05 0.00150413 
0 0 0 -2.16021e-21 -1.21659e-19 5.61318e-12 0 885 393 -3.75054e-21 8.21841e-05 -28.6382 1.1781e-05 0.0015 
0 0 0 1.43978e-10 -5.31244e-10 -2.24864e-12 0 885 465 0.702019 0.19032 -28.5923 1.17759e-05 0.0014984 
0 0 0 -1.96799e-10 -2.01613e-10 2.39779e-12 0 885 665 0.2314 0.499034 -28.5199 1.17679e-05 0.00149587 
0 0 0 2.25952e-12 -2.00025e-12 -3.34658e-12 0 884 1145 -8.32754e-13 8.21841e-05 -28.6382 1.1781e-05 0.0015 
0 0 0 0.000196151 -0.269372 0.0234242 0 855 1070 0.000425938 0.00846683 -0.00278575 1.15916e-08 9.22644e-07 
0 0 0 -0.0712563 -0.526981 0.204553 0 884 2108 0.00739805 0.00587048 0.164441 6.70299e-07 5.40717e-05 
0 0 0 -0.175645 0.19381 -0.0486316 0 884 1662 -0.00250645 -0.0242433 0.206647 6.77296e-07 5.4644e-05 
0 0 0 0.0119591 -0.0450867 0.0167023 0 884 826 4.31796e-05 -3.31066e-05 -0.000574591 2.11291e-09 1.68147e-07 
0 0 0 0.610815 0.206687 -0.833353 0 884 2296 0.064196 -0.0755167 0.540668 1.06262e-06 8.64281e-05 
0 0 0 -0.0677759 -0.0940248 0.00597518 0 884 1216 0.00111103 0.00229703 0.00510323 6.35225e-08 5.06136e-06 
0 0 0 -0.215356 0.454531 0.563828 0 854 1933 0.0323523 0.00338263 -0.0158185 1.03019e-07 8.2149e-06 
0 0 0 -0.0712563 -0.526981 0.204553 0 854 2108 0.0543614 0.0256333 0.00904014 2.56214e-07 2.04939e-05 
0 0 0 0.199783 0.175906 0.126144 0 854 734 0.0718792 0.00761668 0.00402772 4.28417e-07 3.4388e-05 
0 0 0 -0.379767 0.25481 -0.331013 0 854 2119 0.0584822 -0.0255099 -0.014293 1.42111e-07 1.1341e-05 
0 0 0 -0.226366 0.0330347 -0.16941 0 854 1958 0.0269165 0.00425302 0.00135452 7.29783e-08 5.81589e-06 
0 0 0 0.00970829 0.088418 0.0604107 0 854 930 0.00124116 -0.00976198 -0.00492127 3.125e-08 2.48834e-06 
0 0 0 0.0194208 -0.112997 0.109997 0 854 1602 0.00207187 0.000845498 -0.000598582 4.73612e-08 3.77244e-06 
0 0 0 0.0170293 -0.0106569 0.00662495 0 854 197 0.00576122 0.00157825 7.49074e-05 7.552e-08 6.01875e-06 
0 0 0 -0.0248432 0.0187741 0.207412 0 854 713 0.0207413 -0.00509776 -0.00556762 1.38757e-07 1.10726e-05 
0 0 0 -0.00392689 0.00160536 0.168689 0 854 2153 0.00243095 -0.00108497 -0.000547926 3.34754e-08 2.66567e-06 
0 0 0 0.0294368 -0.0401081 0.120288 0 854 2202 0.000641931 -0.000737909 -0.000281012 4.0836e-08 3.25227e-06 
0 0 0 -0.0146123 -0.0574445 0.243243 0 854 1872 0.01309 0.00377305 -0.00341035 1.03457e-07 8.24983e-06 
0 0 0 -0.000292205 -0.0115303 0.0602165 0 854 715 0.0018236 0.000178349 3.65792e-05 2.98129e-08 2.37385e-06 
0 0 0 0.0425024 -0.0194622 0.0508272 0 854 1665 -0.000846333 -2.01134e-05 -4.48654e-05 1.89285e-10 1.50629e-08 
0 0 0 0.0210647 -0.0207413 0.167794 0 854 86 0.000999705 0.00021202 0.000452659 3.78417e-08 3.01362e-06 
0 0 0 0.00610448 0.0515063 0.170562 0 854 867 0.00299507 -0.00100097 -0.00111385 4.61669e-08 3.67722e-06 
0 0 0 -0.0485173 -0.000967022 0.0232232 0 853 210 0.00254953 -0.0250027 0.00233212 1.72078e-07 1.37407e-05 
0 0 0 -0.0788763 -0.00664447 0.068364 0 853 1592 0.00033431 -0.0120549 0.00191923 1.09403e-07 8.72508e-06 
0 0 0 0.0405438 -0.0360894 0.208101 0 852 1701 0.00264524 -0.002857 -0.00385722 6.61743e-08 5.27293e-06 
0 0 0 0.0966402 -0.0101211 0.111078 0 852 294 0.0013846 -0.00783583 0.000126678 8.54686e-08 6.81298e-06 
0 0 0 -0.0291275 -0.00448394 0.122414 0 852 5 -0.000286141 -0.00575863 0.000627525 6.74843e-08 5.37746e-06 
0 0 0 -0.00127048 0.0478743 0.11851 0 852 526 -0.00903874 -0.0114696 -0.0104283 7.50404e-08 5.98047e-06 
0 0 0 -0.000694657 -0.00622561 0.248507 0 852 1130 2.43514e-06 1.53901e-05 -7.29957e-06 9.28215e-09 7.38786e-07 
0 0 0 0.0448586 -0.122295 -0.0398773 0 894 517 0.000277647 0.00154168 -0.00185407 6.04938e-08 4.81975e-06 
0 0 0 -0.0445227 -0.142189 0.00542534 0 894 2054 -0.000575684 0.00354692 -0.00678596 6.86965e-08 5.47419e-06 
0 0 0 -0.0385383 -0.110772 -0.00143016 0 894 882 -0.000356951 -1.48905e-05 -0.000568609 1.51665e-08 1.20728e-06 
0 0 0 0.0511543 -0.254168 0.00779688 0 894 273 0.000255627 0.000417252 -0.00097866 1.31793e-08 1.04905e-06 
0 0 0 0.0265481 -0.221286 -0.00971813 0 894 2063 0.00102181 0.000430304 -0.00164503 3.57009e-08 2.84301e-06 
0 0 0 -0.0377779 -0.204914 -0.00229928 0 894 854 -0.000339261 0.000145192 -0.000738048 1.85164e-08 1.47403e-06 
0 0 0 0.0185091 -0.267668 0.00535775 0 894 1532 0.00120164 0.00337316 -0.00779979 7.58159e-08 6.04237e-06 
0 0 0 -0.0704481 -0.240935 0.00251063 0 894 1053 0.000576114 0.000389461 -0.00211551 3.12618e-08 2.48928e-06 
0 0 0 0.015517 -0.169207 -0.15853 0 855 1335 -0.000462352 6.27116e-05 -9.68173e-05 1.06534e-08 8.4795e-07 
0 0 0 0.00724324 -0.195545 -0.0162553 0 855 1929 4.01559e-05 9.29583e-05 -7.41688e-06 1.17417e-08 9.34592e-07 
0 0 0 -0.0284336 -0.15795 0.0206411 0 855 1805 0.00745161 0.00362302 -0.000869107 5.93293e-08 4.72686e-06 
0 0 0 0.0105069 -0.186358 0.0511323 0 855 2103 0.000335037 0.00132337 -0.0024597 2.02454e-08 1.61172e-06 
0 0 0 0.0034017 -0.162003 0.0114251 0 855 625 0.00276254 0.000922545 0.00263591 4.20793e-08 3.35138e-06 
0 0 0 0.00511278 -0.137429 -0.0127065 0 855 22 0.000879411 5.03183e-05 0.00061228 2.29521e-08 1.8273e-06 
0 0 0 0.0086294 -0.127734 0.085451 0 855 762 0.000153941 0.00029145 -0.00345082 1.5427e-08 1.22802e-06 
0 0 0 0.000349194 -0.199493 -0.0420209 0 855 1236 0.00214771 0.000724319 -0.000145859 3.37629e-08 2.68857e-06 
0 0 0 -0.00354618 -0.090491 0.0956615 0 854 365 0.000707712 0.0015667 -0.00944922 1.27688e-08 1.01637e-06 
0 0 0 -0.0148653 -0.0152095 0.0761231 0 854 1051 0.00966518 0.00042126 -0.00308308 8.24864e-08 6.57487e-06 
0 0 0 0.00226714 -0.0137363 0.0977765 0 854 1365 0.00157435 7.89203e-05 -0.00078321 2.90419e-08 2.31241e-06 
0 0 0 -14.952 -25.0628 45.8842 0 932 2323 -0.330181 1.29669 0.567368 8.72584e-07 7.06872e-05 
0 -11.7114 -74.8488 -0.00119957 -14.4443 -74.318 1 491 405 0.0656778 -0.0683036 -0.057143 4.16073e-07 3.33888e-05 
0 -10.688 -75.0442 -0.00119957 -14.4443 -74.318 1 494 405 0.0140783 -0.0409292 -0.0383433 2.62247e-07 2.0979e-05 
0 -10.8514 -75.072 -0.00119957 -14.4443 -74.318 1 493 405 0.0217835 -0.0390528 -0.0461826 2.97686e-07 2.38311e-05 
0 83.702 -19.0675 -3.96802e-06 80.8505 -16.5103 1 2707 753 0.0267156 -0.0927913 -0.26077 8.01375e-07 6.48219e-05 
0 83.2201 -19.1521 -3.96802e-06 80.8505 -16.5103 1 137 753 -0.00227572 -0.00229089 -0.00613351 6.78709e-08 5.40831e-06 
0 83.663 -19.1247 -3.96802e-06 80.8505 -16.5103 1 134 753 0.0153607 -0.106413 -0.258696 8.10687e-07 6.55879e-05 
0 84.0532 -17.6205 -3.96802e-06 80.8505 -16.5103 1 2721 753 0.0613577 0.020228 -0.233895 7.16741e-07 5.78737e-05 
0 84.2777 -17.4222 -3.96802e-06 80.8505 -16.5103 1 2722 753 0.0261004 0.0210264 -0.149809 5.30242e-07 4.26501e-05 
0 83.2195 -19.1334 -3.96802e-06 80.8505 -16.5103 1 138 753 -0.00226354 -0.00221962 -0.00601229 6.69901e-08 5.33802e-06 
0 83.5977 -19.1162 -3.96802e-06 80.8505 -16.5103 1 136 753 0.0167025 -0.522704 -0.197068 1.23635e-06 0.000100933 
0 83.89 -18.8253 -3.96802e-06 80.8505 -16.5103 1 120 753 0.0446245 -0.344711 -0.191216 9.89029e-07 8.03172e-05 
0 83.9023 -17.6041 -3.96802e-06 80.8505 -16.5103 1 123 753 -0.0533569 -0.0659319 -0.397011 1.00404e-06 8.1562e-05 
0 83.9809 -17.6525 -3.96802e-06 80.8505 -16.5103 1 2650 753 0.0847622 0.0279404 -0.232329 7.28771e-07 5.88599e-05 
0 83.8034 -17.1855 -3.96802e-06 80.8505 -16.5103 1 124 753 -0.101162 0.0118575 -0.384967 9.91472e-07 8.05197e-05 
0 98.3668 -18.2975 -0.111781 98.5711 -17.8945 1 2698 1116 -18.1216 -20.5938 2.29504 1.16388e-05 0.00145663 
0 83.7963 -17.1692 -3.96802e-06 80.8505 -16.5103 1 125 753 -0.10391 0.0161157 -0.38383 9.91081e-07 8.04873e-05 
0 98.6488 -16.9117 -0.111781 98.5711 -17.8945 1 2717 1116 25.6136 15.3779 -7.94557 1.19113e-05 0.00154337 
0 83.8602 -16.9882 -3.96802e-06 80.8505 -16.5103 1 2649 753 0.0925515 -0.0839778 -0.503163 1.17748e-06 9.60054e-05 
0 84.223 -16.6129 -3.96802e-06 80.8505 -16.5103 1 126 753 -0.0219314 0.0341219 -0.113926 4.52995e-07 3.63791e-05 
0 74.4869 -13.6376 6.89261e-07 74.316 -14.5518 1 92 303 -0.00846768 -0.0010113 -0.00464687 8.17605e-08 6.51691e-06 
0 84.0743 -16.695 -3.96802e-06 80.8505 -16.5103 1 2647 753 0.0542579 -0.0865055 -0.452532 1.0953e-06 8.91483e-05 
0 84.5713 -15.4457 -3.96802e-06 80.8505 -16.5103 1 2644 753 -0.00798861 -0.0380014 -0.226334 6.91248e-07 5.57858e-05 
0 74.5217 -13.541 6.89261e-07 74.316 -14.5518 1 91 303 -0.00947514 0.000658411 -0.00493598 9.06302e-08 7.22517e-06 
0 84.2568 -16.6199 -3.96802e-06 80.8505 -16.5103 1 2702 753 -0.0202034 0.0340129 -0.112784 4.49498e-07 3.60956e-05 
0 84.3859 -16.8901 -3.96802e-06 80.8505 -16.5103 1 2703 753 -0.0144211 0.0219023 -0.0701357 3.29908e-07 2.64278e-05 
0 97.5888 -15.9716 -0.111781 98.5711 -17.8945 1 2703 1116 -2.67181 0.616029 -0.452085 3.37117e-06 0.000289175 
0 84.4537 -15.1639 -3.96802e-06 80.8505 -16.5103 1 2672 753 -0.000647677 -0.0326484 -0.326971 8.74413e-07 7.08381e-05 
0 84.3728 -14.8551 -3.96802e-06 80.8505 -16.5103 1 2673 753 -0.00260111 -0.00517757 -0.214331 6.60752e-07 5.3291e-05 
0 84.5262 -15.1789 -3.96802e-06 80.8505 -16.5103 1 2674 753 0.0156625 -0.00133086 -0.0917643 3.81071e-07 3.05581e-05 
0 97.8707 -14.5858 -0.111781 98.5711 -17.8945 1 2723 1116 -2.31061 1.70103 1.24235 3.64367e-06 0.000314716 
0 84.6488 -15.4645 -3.96802e-06 80.8505 -16.5103 1 2724 753 0.00156053 0.0402804 -0.0459761 2.88467e-07 2.30887e-05 
0 97.8712 -14.4947 -0.111781 98.5711 -17.8945 1 2724 1116 -1.66995 1.21956 0.996186 3.00064e-06 0.000255045 
0 74.8425 -11.8321 6.89261e-07 74.316 -14.5518 1 63 303 -0.0902656 0.0788478 -0.0898614 5.1312e-07 4.12584e-05 
0 75.0887 -10.8873 6.89261e-07 74.316 -14.5518 1 86 303 -0.00740292 0.0149332 -0.012632 1.41497e-07 1.12918e-05 
0 75.0794 -10.7997 6.89261e-07 74.316 -14.5518 1 85 303 -0.0117141 0.0313169 -0.0254253 2.24874e-07 1.79757e-05 
0 84.5363 -15.2291 -3.96802e-06 80.8505 -16.5103 1 2726 753 0.0186893 0.00201678 -0.0892712 3.75985e-07 3.01471e-05 
0 97.8737 -14.4103 -0.111781 98.5711 -17.8945 1 2725 1116 -1.15015 0.827135 0.753001 2.38236e-06 0.000199536 
0 0 0 1.79083e-10 -6.56123e-11 -1.55522e-12 0 885 23 -0.159145 -0.673914 -28.6418 1.17814e-05 0.00150013 
0 0 0 -1.43978e-10 5.31244e-10 -2.2459e-12 0 885 765 -0.827448 -0.224145 -28.6841 1.1786e-05 0.0015016 
0 0 0 -1.75471e-10 3.16262e-10 -2.98446e-12 0 885 1484 0.155923 0.764972 -28.5572 1.17721e-05 0.00149717 
0 0 0 1.93186e-10 -4.90387e-11 1.1829e-12 0 885 124 -0.387708 -1.00351 -28.7334 1.17914e-05 0.00150332 
0 0 0 -3.51012e-06 -9.91354e-08 -1.0116e-05 0 885 1052 -3.50074e-07 7.64674e-05 -28.6382 1.1781e-05 0.0015 
0 0 0 2.42215e-262 1.0152e-19 -5.56858e-13 0 885 1441 2.02978e-256 8.21841e-05 -28.6382 1.1781e-05 0.0015 
0 0 0 8.44606e-05 -0.00160243 0.000305203 0 885 173 0.000809612 0.00036486 -28.6377 1.17809e-05 0.00149998 
0 0 0 -2.32433e-05 -3.55377e-05 -0.000136432 0 885 874 -0.00021958 0.000185874 -28.6382 1.1781e-05 0.0015 
0 0 0 1.97766e-15 1.57986e-15 1.35567e-13 0 885 281 1.02707 -0.260978 -28.4336 1.17583e-05 0.00149285 
0 0 0 -1.34739 0.641153 4.86413 0 885 1530 -0.0985939 -0.332657 0.600214 2.67787e-06 0.00022585 
0 0 0 3.37556e-16 -2.82022e-15 1.3519e-13 0 885 2235 -1.22868 0.665814 -28.8348 1.18024e-05 0.00150686 
0 0 0 -7.53591e-11 2.71513e-10 -4.23391e-11 0 885 1154 1.04058e-10 8.21844e-05 -28.6382 1.1781e-05 0.0015 
0 0 0 -1.41141e-15 1.49294e-15 1.34927e-13 0 885 171 -0.349037 -0.286292 -28.6466 1.17819e-05 0.00150029 
0 0 0 1.79083e-10 -6.56123e-11 -1.55522e-12 0 850 23 -0.157288 -0.666048 28.6346 1.17806e-05 0.00149987 
0 0 0 -1.43978e-10 5.31244e-10 -2.2459e-12 0 850 765 -0.702019 -0.190155 28.5923 1.17759e-05 0.0014984 
0 0 0 -1.75471e-10 3.16262e-10 -2.98446e-12 0 850 1484 0.294929 1.00944 28.7193 1.17898e-05 0.00150283 
0 0 0 1.93186e-10 -4.90387e-11 1.1829e-12 0 850 124 -0.292056 -0.755916 28.543 1.17705e-05 0.00149668 
0 0 0 -3.51012e-06 -9.91354e-08 -1.0116e-05 0 850 1052 3.93452e-06 7.81218e-05 28.6382 1.1781e-05 0.0015 
0 0 0 2.42215e-262 1.0152e-19 -5.56858e-13 0 850 1441 -2.02978e-256 8.21841e-05 28.6382 1.1781e-05 0.0015 
0 0 0 8.44606e-05 -0.00160243 0.000305203 0 850 173 -0.00036608 0.0015124 28.6387 1.1781e-05 0.00150002 
0 0 0 -2.32433e-05 -3.55377e-05 -0.000136432 0 850 874 0.000174708 0.000203488 28.6381 1.1781e-05 0.0015 
0 0 0 1.97766e-15 1.57986e-15 1.35567e-13 0 850 281 1.55771 -0.395855 28.8432 1.18033e-05 0.00150715 
0 0 0 3.37556e-16 -2.82022e-15 1.3519e-13 0 850 2235 -0.679151 0.54676 28.442 1.17593e-05 0.00149314 
0 0 0 -7.53591e-11 2.71513e-10 -4.23391e-11 0 850 1154 -3.21318e-11 8.2184e-05 28.6382 1.1781e-05 0.0015 
0 0 0 -1.41141e-15 1.49294e-15 1.34927e-13 0 850 171 -0.327909 -0.268957 28.6298 1.17801e-05 0.00149971 
0 -27.8972 -92.9623 -3.34838 -7.19935 -1.99127 1 1862 2252 1.62627 -3.91135 -30.2008 5.22647e-06 0.000471484 
0 -19.0986 -83.7086 -0.044519 -16.4737 -80.8241 1 529 1181 0.00319549 -0.152822 0.0447328 5.49258e-07 4.41969e-05 
0 -18.9062 -83.7731 -0.044519 -16.4737 -80.8241 1 1861 1181 0.0178717 -0.117298 0.0276187 4.58753e-07 3.68458e-05 
0 -18.809 -83.8849 -0.044519 -16.4737 -80.8241 1 530 1181 -0.165276 -0.217919 0.246529 9.48835e-07 7.69877e-05 
0 -18.3165 -84.2699 -0.044519 -16.4737 -80.8241 1 1874 1181 -0.0169677 -0.196887 0.00738976 6.33284e-07 5.10466e-05 
0 -18.2352 -84.3055 -0.044519 -16.4737 -80.8241 1 1873 1181 -0.0251244 -0.204844 0.00295857 6.51532e-07 5.25373e-05 
0 -17.3008 -84.0997 -0.044519 -16.4737 -80.8241 1 1883 1181 0.0242604 -0.0663262 -0.0141386 3.17298e-07 2.54112e-05 
0 -17.1353 -84.3313 -0.044519 -16.4737 -80.8241 1 1889 1181 0.00929719 -0.0293649 -0.00833425 1.84119e-07 1.47058e-05 
0 -17.0524 -84.4472 -0.044519 -16.4737 -80.8241 1 1890 1181 0.000414844 -0.00108951 -0.000375717 1.7197e-08 1.36896e-06 
0 -16.0351 -84.4393 -0.044519 -16.4737 -80.8241 1 1826 1181 -0.0181657 -0.344491 0.0418556 9.0502e-07 7.33648e-05 
0 -16.047 -84.4308 -0.044519 -16.4737 -80.8241 1 1842 1181 -0.0176288 -0.344441 0.0391986 9.04266e-07 7.33025e-05 
0 -15.5758 -84.5377 -0.044519 -16.4737 -80.8241 1 1828 1181 -0.00197112 -0.35508 0.0720771 9.3217e-07 7.56089e-05 
0 -15.5763 -84.5314 -0.044519 -16.4737 -80.8241 1 1827 1181 -0.00252838 -0.356062 0.0706195 9.33171e-07 7.56917e-05 
0 -15.1908 -84.5368 -0.044519 -16.4737 -80.8241 1 1830 1181 0.0542483 -0.123781 -0.046248 5.08824e-07 4.09093e-05 
0 -15.5041 -84.578 -0.044519 -16.4737 -80.8241 1 1831 1181 0.00512859 -0.296202 0.0632836 8.30336e-07 6.72052e-05 
0 -18.7004 -83.8668 -0.044519 -16.4737 -80.8241 1 526 1181 0.112643 -0.301893 0.352679 1.12449e-06 9.15806e-05 
0 -18.7117 -83.8886 -0.044519 -16.4737 -80.8241 1 527 1181 0.0827475 -0.254524 0.382895 1.10793e-06 9.02e-05 
0 -18.2535 -83.9513 -0.044519 -16.4737 -80.8241 1 541 1181 0.0247414 -0.480247 0.171391 1.18884e-06 9.69553e-05 
0 -17.6693 -84.4016 -0.044519 -16.4737 -80.8241 1 1871 1181 -0.0849054 -0.211018 -0.0307898 7.00475e-07 5.65413e-05 
0 -17.2968 -84.3975 -0.044519 -16.4737 -80.8241 1 1870 1181 -0.0162857 -0.0565335 -0.0140894 3.0005e-07 2.40214e-05 
0 -17.1752 -84.3231 -0.044519 -16.4737 -80.8241 1 1869 1181 -0.0416678 -0.118495 -0.0345808 4.88164e-07 3.92316e-05 
0 -16.8937 -84.1511 -0.044519 -16.4737 -80.8241 1 1868 1181 -0.0973773 -0.173139 -0.0728393 6.6713e-07 5.38125e-05 
0 -16.6297 -84.6321 -0.044519 -16.4737 -80.8241 1 1892 1181 0.022159 -0.130539 -0.0581042 5.10052e-07 4.10091e-05 
0 -16.1097 -84.7287 -0.044519 -16.4737 -80.8241 1 1893 1181 0.0438548 -0.143893 -0.0451318 5.63881e-07 4.53872e-05 
0 -15.2883 -84.4777 -0.044519 -16.4737 -80.8241 1 1885 1181 0.0277651 -0.126003 -0.0745927 5.25669e-07 4.22783e-05 
0 0 0 -0.0793113 0.0732336 -0.00708637 0 853 2081 0.00203402 -0.0042131 0.000855143 9.52088e-09 7.57791e-07 
0 0 0 -0.131736 0.00606724 0.00150152 0 853 2157 0.0053881 -0.000404671 -0.0018671 5.13217e-09 4.08447e-07 
0 0 0 -0.120087 -0.00801642 -0.0663422 0 853 309 0.000380038 -0.00305247 -0.000174588 4.80443e-08 3.82691e-06 
0 0 0 -0.00852909 -0.0134422 -0.0681481 0 853 1106 -0.000265091 0.000163851 -1.13478e-05 1.48528e-08 1.1823e-06 
0 0 0 -0.0343491 -0.00913026 0.131001 0 853 1155 -0.000959544 -0.0050858 -0.000189576 6.54496e-08 5.21511e-06 
0 0 0 0.0726305 -0.00307058 0.197133 0 853 2041 0.00163885 -0.00369208 -0.0015328 5.01768e-08 3.99694e-06 
0 0 0 -0.0911354 -0.0390311 0.203733 0 853 780 -0.000168163 -0.00283477 -0.001138 6.8043e-08 5.42204e-06 
0 0 0 -0.0902333 0.0109433 0.174004 0 853 941 0.00356397 -0.0286116 -0.00889825 1.82335e-07 1.45628e-05 
0 0 0 -0.00550856 0.0402381 -0.00140305 0 884 331 0.050314 -0.0733386 -28.6026 1.17771e-05 0.00149877 
0 0 0 -0.14725 0.0380823 0.00163798 0 884 1694 -0.000192363 -0.000204496 0.000561505 1.52502e-08 1.21394e-06 
0 0 0 -0.00550856 0.0402381 -0.00140305 0 850 331 0.0388048 -0.0192036 28.6738 1.17848e-05 0.00150123 
0 0 0 0.0185906 -0.175713 0.0158895 0 894 233 -8.51642e-05 0.000773685 -0.00155672 1.46046e-08 1.16254e-06 
0 0 0 0.0159237 -0.309027 0.0362617 0 894 591 -0.00051681 0.00377391 -0.00761827 5.58143e-08 4.4465e-06 
0 0 0 0.0627199 -0.102565 0.00162774 0 894 1249 0.000685901 -0.000529503 -0.00919929 8.72925e-08 6.95863e-06 
0 0 0 -0.058192 -0.0422197 -0.0100978 0 894 1995 0.000454002 0.000438154 -0.00233765 4.29519e-08 3.42093e-06 
0 0 0 -0.0040835 -0.220599 0.00141436 0 894 2139 -4.35837e-06 2.0342e-05 -4.16072e-05 5.59768e-10 4.45454e-08 
0 0 0 0.0273672 0.0981939 0.0012873 0 894 1294 0.000161793 -7.27041e-05 -0.000596322 1.30579e-08 1.03938e-06 
0 0 0 0 -2.00939e-20 -4.48962e-12 0 894 272 1.75288e-305 8.21841e-05 28.6382 1.1781e-05 0.0015 
0 0 0 -0.0211312 0.00605573 0.133205 0 852 137 0.00178169 -0.00401706 -0.000927236 4.67173e-08 3.72111e-06 
0 0 0 -0.00607142 -0.00197382 0.141665 0 852 1242 -3.21233e-05 -0.000157441 -7.18682e-05 8.16578e-09 6.49917e-07 
0 0 0 0.131225 -0.00174533 0.133525 0 852 1439 -4.64401e-05 -0.000127438 -4.36281e-05 7.20012e-09 5.73049e-07 
0 0 0 0 -2.00939e-20 -4.48962e-12 0 849 272 -1.75288e-305 8.21841e-05 -28.6382 1.1781e-05 0.0015 
0 0 0 0.0662667 -0.22362 -0.00430929 0 895 838 -0.000159561 0.000121713 -0.000401367 1.52405e-08 1.21317e-06 
0 0 0 -0.0648989 -0.0876132 -0.00413394 0 895 2094 0.000526827 -0.00040062 -0.00194813 3.4565e-08 2.75249e-06 
0 0 0 0.0538659 -0.0100375 0.193508 0 853 1689 -0.000809916 -0.00314307 -0.0100877 5.02778e-08 4.00499e-06 
0 0 0 0.0338131 -0.00640556 0.136946 0 853 1935 -0.00653871 -0.00246282 -0.00103056 4.14245e-08 3.29918e-06 
0 0 0 17.7527 22.9878 23.008 0 945 445 0.0143845 0.034723 -0.0163003 8.47714e-07 6.86367e-05 
0 0 0 -0.133914 18.1826 26.2986 0 943 996 0.0079421 0.429586 -0.205132 1.65842e-06 0.00013664 
0 0 0 -7.24592 5.52318 27.4791 0 939 1516 0.0266367 0.0600368 -0.0296922 4.80753e-07 3.86302e-05 
0 0 0 0.944326 -22.0618 7.80091 0 923 31 0.00914941 -0.0454061 0.000726215 7.20028e-07 5.81432e-05 
0 0 0 -4.44352 -30.6116 4.76703 0 921 1391 0.0381631 -0.0814065 -0.0684416 7.41701e-07 5.99203e-05 
0 0 0 -17.8881 -31.9159 4.74642 0 921 2271 -0.0707907 0.0229103 0.787554 2.11991e-06 0.000176483 
0 0 0 -3.53607 19.5271 0.745484 0 953 1808 -0.00328614 0.0163217 0.0910818 9.00126e-08 7.17585e-06 
0 0 0 1.52753 29.7689 8.51652 0 951 2322 -0.00441728 0.205482 -1.04422 1.99599e-06 0.0001657 
0 0 0 -1.6665e-06 -8.28041e-13 -7.28615e-13 0 961 428 -7.01527e-15 9.45454 12.5197 9.45155e-06 0.00100427 
0 0 0 1.9432 20.2247 -6.19311 0 957 2244 -0.0138364 -0.175166 -0.536208 1.45546e-06 0.000119385 
0 0 0 -1.6665e-06 -8.28041e-13 -7.28615e-13 0 753 428 -2.52255e-14 -9.45437 -12.5197 9.45152e-06 0.00100427 
0 0 0 -6.35117 -6.30332 -25.0333 0 904 1060 -0.00712311 0.105043 -0.0541822 3.25861e-08 2.5948e-06 
0 0 0 0.208546 -0.716524 0.139016 0 886 897 -0.0567468 0.0272443 -0.00792441 2.05715e-07 1.64379e-05 
0 0 0 -0.0678781 0.0173939 -0.00876565 0 963 716 -0.771408 4.98757 13.4 8.83377e-06 0.00090999 
0 0 0 -0.00667771 -0.156274 -0.0116228 0 893 754 0.000206578 0.000102557 -1.22755e-05 1.75725e-09 1.39843e-07 
0 0 0 -0.0678781 0.0173939 -0.00876565 0 751 716 0.520239 -5.7466 -9.01873 7.73291e-06 0.000759622 
0 0 0 -0.0678781 0.0173939 -0.00876565 0 752 716 0.277442 0.753278 -4.37823 4.69658e-06 0.00041727 
0 0 0 -0.0115039 0.0127094 0.252892 0 888 260 -0.00590899 -0.000980786 -0.000481992 7.30609e-08 5.82247e-06 
0 0 0 -0.00690442 0.0657045 0.0993499 0 888 1188 -7.01224e-05 6.3028e-06 -0.00118058 1.19663e-08 9.52476e-07 
0 0 0 -0.0132388 -0.0561299 0.143148 0 888 1595 -0.00109575 -0.000680156 -0.00064708 3.24874e-08 2.58693e-06 
0 0 0 -0.0064621 -0.00695317 0.140431 0 888 1358 -5.99512e-05 -0.000379879 -0.000988034 1.12486e-08 8.95337e-07 
0 0 0 -0.0064621 -0.00695317 0.140431 0 853 1358 0.00108258 -3.00653e-05 -0.000267464 1.11911e-08 8.90759e-07 
0 0 0 -0.00376697 -0.144986 -0.0207422 0 891 1436 -1.94628e-05 0.000719701 -0.000737961 6.99075e-09 5.56384e-07 
0 0 0 0.0126596 -0.119509 0.0412074 0 887 832 -0.0100787 0.00283858 0.00416381 8.64096e-08 6.88812e-06 
0 0 0 -0.00793519 -0.154446 0.0668411 0 887 2032 -0.000558666 0.000221636 -0.000170012 2.10925e-08 1.67919e-06 
0 0 0 0.0273382 -0.106851 0.0860184 0 887 1814 -0.00238451 -0.00113554 -0.000363351 1.62534e-08 1.29383e-06 
0 0 0 -0.00307385 -0.204516 0.00645964 0 892 1184 -0.000206949 5.01164e-05 -9.05278e-05 1.04508e-08 8.3182e-07 
0 0 0 -0.0233937 -0.0331379 -0.0081693 0 892 1494 0.000275576 9.67118e-05 9.81446e-05 2.3806e-08 1.89532e-06 
0 0 0 -0.00456204 -0.202902 0.00864701 0 895 960 -9.64788e-05 0.00110812 -0.00222463 2.78119e-08 2.21442e-06 
0 0 0 -0.0233937 -0.0331379 -0.0081693 0 895 1494 -0.00407697 0.00134919 -0.0156395 1.30039e-07 1.03751e-05 
0 0 0 -0.0237257 -0.133029 0.00243837 0 888 1664 0.000262482 -0.000104749 -0.000119705 2.43481e-08 1.9385e-06 
0 0 0 -0.00247899 -0.105461 0.0386873 0 888 301 -0.001176 0.000585011 -5.9224e-05 2.44969e-08 1.95035e-06 
0 0 0 0.00218433 -0.129685 0.0707089 0 888 1703 -0.000324116 0.00128826 -0.00301398 7.24422e-09 5.7656e-07 
0 0 0 0.0255014 -0.0293423 0.166449 0 888 705 -0.00570815 0.0023327 -0.00164447 4.79503e-08 3.81941e-06 
0 0 0 0.515095 -5.27922 33.4299 0 381 873 0.00399621 -0.188675 0.0572111 3.56128e-07 2.85435e-05 
0 0 0 -2.42966 -11.9273 29.2258 0 380 1208 -0.00983015 0.337051 0.0943185 9.23362e-07 7.48806e-05 
0 0 0 -2.85119 28.2838 26.5171 0 393 2239 0.0185339 0.716127 -0.881843 2.19567e-06 0.000183108 
0 0 0 2.23728 11.9672 20.7338 0 389 2061 -0.0125576 0.0978155 0.0056649 9.05182e-07 7.33782e-05 
0 0 0 -3.35821 15.8247 45.6537 0 387 1313 0.249059 0.961421 -0.264127 2.3643e-06 0.00019794 
0 0 0 1.11796 -32.4191 13.9453 0 369 1496 0.000413909 -0.00124803 0.0101475 1.10525e-06 8.99773e-05 
0 0 0 7.30049 27.4725 7.84032 0 399 2304 -0.0763717 -0.11815 -0.889881 1.5437e-06 0.000126868 
0 0 0 -1.22044 24.3447 9.54898 0 397 2273 0.0483086 0.0355075 -0.288205 1.26508e-06 0.000103342 
0 0 0 0.395672 19.9555 5.0361 0 400 1328 -0.0834771 -0.276565 -0.291525 7.59526e-07 6.13831e-05 
0 0 0 -2.59192 -27.0355 -10.3486 0 435 581 0.00447874 -0.234959 0.929975 1.68678e-06 0.000139065 
0 0 0 13.1299 15.9602 -12.2981 0 409 645 0.0229425 0.0881985 0.0650395 2.75794e-07 2.20687e-05 
0 0 0 -4.22689 24.0032 -18.119 0 409 39 -0.00686807 0.116216 0.0822081 7.70685e-08 6.14235e-06 
0 0 0 2.77501 26.6959 -12.9573 0 407 2278 -0.0156412 -0.274957 -0.579638 1.67496e-06 0.000138053 
0 0 0 5.71382 23.33 -7.40321 0 405 2211 0.010057 0.0708856 0.0926272 2.75473e-07 2.2043e-05 
0 0 0 -0.0826078 -6.19793 -22.4119 0 423 1508 -0.018127 -0.0461366 -0.00319237 8.08554e-07 6.54123e-05 
0 0 0 -0.872346 -1.11802 -34.5214 0 421 357 -0.0204967 -1.49294 0.229202 2.42234e-06 0.000203073 
0 0 0 -0.880752 6.58489 36.7208 0 386 1453 -0.000915902 0.567182 0.0225417 1.84978e-06 0.000153058 
0 0 0 0.919567 -19.3703 32.6575 0 378 46 -0.0173154 0.795523 0.426342 1.96836e-06 0.000163304 
0 0 0 1.6718 -13.3449 28.3339 0 378 265 0.0168441 -0.372124 -0.114641 4.81058e-07 3.86549e-05 
0 0 0 -0.809762 -18.3074 32.9219 0 379 950 -0.0459408 0.305258 0.174578 3.48469e-08 2.77496e-06 
0 0 0 1.81021 -7.66646 23.1415 0 379 258 -0.259871 1.53336 -0.0802021 2.73335e-06 0.000230834 
0 0 0 -1.88196 19.5214 17.267 0 394 2249 -0.0127945 0.32339 -0.277563 1.41978e-06 0.000116368 
0 0 0 -0.1833 16.3797 19.6943 0 392 1427 -0.00109073 -0.0406474 0.0788602 5.13475e-07 4.12872e-05 
0 0 0 3.79607 10.0715 31.9048 0 387 67 0.00879131 0.951951 -0.370518 2.02757e-06 0.000168442 
0 0 0 0.412085 -27.6137 17.3042 0 372 923 -0.000435056 -0.139917 -0.0893997 3.17679e-07 2.54419e-05 
0 0 0 1.97342 -24.6348 5.21037 0 367 376 -0.000207712 -0.00157937 0.00524672 5.57239e-07 4.48465e-05 
0 0 0 -1.48869 24.5854 9.61599 0 398 974 0.122999 0.337219 -0.596242 1.87875e-06 0.000155556 
0 0 0 -1.95738 22.3314 10.4064 0 398 1942 -0.0137906 0.270492 -0.70136 1.53224e-06 0.000125894 
0 0 0 -2.38905 27.2803 10.4901 0 398 1921 -0.0152841 0.00806247 0.139647 4.63186e-07 3.72053e-05 
0 0 0 -4.13556 29.7865 11.9891 0 397 488 0.0268483 0.00223358 -0.113348 9.44167e-07 7.66014e-05 
0 0 0 1.70984 20.8929 15.9103 0 395 1657 -0.0118412 0.426695 -0.741989 1.36098e-06 0.000111406 
0 0 0 0.924794 -40.9944 -4.90756 0 438 2184 0.00195604 -0.0798662 -0.224299 2.34465e-07 1.8746e-05 
0 0 0 3.4342 -29.8889 -14.4003 0 434 1110 0.00583143 -0.0403007 -0.0540962 8.96953e-07 7.26985e-05 
0 0 0 3.4318 -21.121 -15.1347 0 432 455 0.00903455 0.00887478 -0.094704 5.32235e-07 4.28121e-05 
0 0 0 -4.13995 -24.9924 -16.186 0 433 91 0.0985466 -0.349462 0.718948 1.16052e-06 9.45882e-05 
0 0 0 -0.73518 -25.965 -11.0542 0 433 2317 -0.004287 -0.0978915 0.0668291 1.50563e-06 0.000123636 
0 0 0 -0.648785 27.7537 -20.9603 0 410 1619 -0.00144154 -0.0461512 -0.233338 1.32146e-06 0.000108079 
0 0 0 1.67563 23.6371 -11.3428 0 408 2001 -0.0141921 -0.336951 -0.768231 1.88253e-06 0.000155882 
0 0 0 -0.540931 27.2302 -8.59794 0 406 1996 -0.00939326 0.0546846 0.103411 5.10413e-08 4.06587e-06 
0 0 0 -6.71523 29.8835 -4.16399 0 404 52 -0.0036914 0.00885788 -0.0237375 8.64134e-07 6.99902e-05 
0 0 0 -3.24943 22.8799 -6.41726 0 407 2224 -0.714979 -0.997028 -1.40594 1.89733e-06 0.00015716 
0 0 0 4.55309 27.3619 0.70353 0 403 553 -0.194457 -0.0156446 -0.520554 4.35576e-07 3.49677e-05 
0 0 0 -0.682882 -20.8368 -21.9561 0 430 1073 -0.000390534 0.0453228 -0.0945396 9.14064e-08 7.28716e-06 
0 0 0 -1.96861 -12.7535 -27.0903 0 426 2275 -0.00366034 0.0808101 -0.114954 5.18573e-07 4.17015e-05 
0 0 0 -0.837197 -10.9687 -31.0539 0 426 1221 0.0188259 -0.978138 0.490071 1.69715e-06 0.000139952 
0 0 0 3.45765 2.25776 -28.9644 0 420 1311 0.00370566 0.128519 -0.033072 8.42334e-08 6.71435e-06 
0 0 0 0.198137 -5.82723 -21.2325 0 423 809 0.0192428 -0.102679 -0.0190427 8.83999e-07 7.16291e-05 
0 0 0 -0.0215966 -2.48269 -31.2262 0 423 13 0.0527866 -0.778033 0.14534 6.03923e-07 4.86504e-05 
0 0 0 4.23086 -1.58144 -38.1325 0 423 177 -0.26128 -1.96176 -0.468396 1.40607e-06 0.00011521 
0 0 0 1.10131 12.1978 -26.903 0 417 103 -0.279735 -1.6141 0.611497 1.46692e-06 0.000120355 
0 0 0 3.54327 23.901 -26.6356 0 413 50 0.267722 -0.809094 -0.570043 1.0729e-06 8.72834e-05 
0 0 0 1.12671 6.61573 -26.969 0 419 902 -0.0644788 -0.482758 -0.0943763 3.61266e-07 2.89583e-05 
0 0 0 1.80366 8.35542 44.637 0 537 1003 -0.00177748 0.0527367 0.0183748 1.27825e-06 0.000104447 
0 0 0 1.06853 -9.79169 29.0553 0 531 144 -0.00350906 -0.0778486 0.0480021 7.24772e-07 5.8532e-05 
0 0 0 2.5199 16.0474 28.1475 0 541 479 0.00775467 -0.107035 0.136435 2.05876e-07 1.64508e-05 
0 0 0 -1.77971 24.1822 34.785 0 392 2264 -0.00895118 1.01276 -0.971828 2.09602e-06 0.000174399 
0 0 0 4.28422 7.70115 32.8057 0 388 511 0.114204 1.17934 -0.470162 1.70969e-06 0.000141025 
0 0 0 -1.61353 -31.0734 19.5799 0 523 2180 0.00552048 0.00407891 0.0807336 1.08849e-06 8.85811e-05 
0 0 0 0.373128 -27.1691 1.78892 0 518 1282 0.00420131 0.0349069 0.494406 1.41235e-06 0.00011574 
0 0 0 -1.73585 -32.0119 21.3745 0 374 2236 -0.00491379 0.808556 0.903633 1.3455e-06 0.000110102 
0 0 0 -5.57585 32.7709 4.90445 0 553 472 0.0419369 0.0739845 -1.36632 1.86438e-06 0.000154316 
0 0 0 -1.55761 37.8541 14.1928 0 551 821 -0.0441597 0.265758 -0.96816 8.98456e-07 7.28226e-05 
0 0 0 -1.50532 36.2928 7.31634 0 551 1423 0.0138478 0.16033 -0.146523 1.33383e-06 0.000109119 
0 0 0 -4.13989 33.1601 21.2945 0 547 90 -0.0605831 0.518846 -0.844219 2.15131e-06 0.000179226 
0 0 0 1.01304 38.1624 1.12351 0 402 417 0.0293454 -0.10889 -1.12998 2.58243e-06 0.000217309 
0 0 0 -0.608389 32.1613 16.1262 0 398 2074 0.0464704 0.39359 -1.21106 1.90073e-06 0.000157453 
0 0 0 3.50544 23.2711 13.8424 0 396 1413 0.00792015 -0.0172056 0.135321 4.01371e-07 3.21993e-05 
0 0 0 5.19501 33.2713 23.0292 0 396 160 0.00305317 0.961303 -1.76628 2.89983e-06 0.000245875 
0 0 0 2.10067 -27.7254 -2.32792 0 517 81 -0.0373426 0.012084 0.50071 9.02612e-07 7.31659e-05 
0 0 0 1.67523 -43.4903 -8.01654 0 438 2260 -0.0129574 -0.0529396 1.31289 2.15741e-06 0.00017976 
0 0 0 -1.27762 39.188 -5.36559 0 555 184 -0.00309953 0.125941 0.189295 2.17226e-07 1.73617e-05 
0 0 0 -3.62393 39.1164 -3.44336 0 404 2248 -0.038939 -0.203667 -1.1002 2.09798e-06 0.00017457 
0 0 0 0.894242 -18.9617 -29.6133 0 579 971 -0.0155388 -0.762036 0.532075 1.99966e-06 0.000166019 
0 0 0 -4.75782 -8.5908 -23.7542 0 577 537 0.0227888 -0.739173 0.369056 1.47484e-06 0.000121026 
0 0 0 0.374338 -3.85838 -39.4955 0 575 423 -0.107682 -1.36718 -0.851507 1.0254e-06 8.33346e-05 
0 0 0 -4.31363 -24.1989 -24.7779 0 430 1536 -0.00900989 0.0636299 -0.179901 3.13774e-07 2.51272e-05 
0 0 0 -6.34838 -18.3146 -36.7066 0 426 504 -0.00252888 -0.108398 -0.00880181 1.58402e-06 0.000130297 