ITEM: TIMESTEP
18650000
ITEM: NUMBER OF ENTRIES
542
ITEM: BOX BOUNDS ff ff ff
-0.01 0.45
-0.15 0.15
-0.08 0.1
ITEM: ENTRIES c_pwc[1] c_pwc[2] c_pwc[3] c_pwc[4] c_pwc[5] c_pwc[6] c_pwc[7] c_pwc[8] c_pwc[9] c_pwc[10] c_pwc[11] c_pwc[12] c_pwc[13] c_pwc[14] 
0 0 0 0.340448 6.95033 9.2159 0 944 813 -0.0142491 0.180751 -0.153362 4.0479e-07 3.24758e-05 
0 0 0 -4.74568e-147 -3.24829e-19 -6.17513e-12 0 850 393 -7.16139e-144 8.21841e-05 28.6382 1.1781e-05 0.0015 
0 0 0 -1.36709e-75 1.64186e-19 4.80582e-15 0 850 1145 -6.95901e-72 8.21841e-05 28.6382 1.1781e-05 0.0015 
0 0 0 3.61842e-15 4.22965e-17 1.40735e-12 0 850 465 0.827613 0.224344 28.6842 1.1786e-05 0.00150161 
0 0 0 7.07153e-07 7.10225e-07 -3.44586e-09 0 850 665 0.31159 0.826672 28.7552 1.17937e-05 0.00150408 
0 0 0 -4.74568e-147 -3.24829e-19 -6.17513e-12 0 885 393 7.13727e-144 8.21841e-05 -28.6382 1.1781e-05 0.0015 
0 0 0 3.61842e-15 4.22965e-17 1.40735e-12 0 885 465 0.701868 0.190271 -28.5922 1.17759e-05 0.00149839 
0 0 0 7.07153e-07 7.10225e-07 -3.44586e-09 0 885 665 0.2337 0.498699 -28.5213 1.17681e-05 0.00149592 
0 0 0 -1.36709e-75 1.64186e-19 4.80582e-15 0 884 1145 6.78341e-72 8.21841e-05 -28.6382 1.1781e-05 0.0015 
0 0 0 -0.0040604 -0.0644254 -0.223193 0 855 1070 0.00494761 0.00357181 0.000784949 5.57351e-08 4.44019e-06 
0 0 0 -0.0433813 -0.0142105 -0.135644 0 855 1335 0.00426728 0.000499822 0.00207427 2.45638e-08 1.95568e-06 
0 0 0 0.00036161 -0.0323112 -0.00416625 0 855 1002 0.00123603 0.00061146 8.97667e-05 2.3482e-08 1.86951e-06 
0 0 0 0.00930467 -0.0925724 -0.019605 0 894 1773 -9.9646e-05 0.000182503 -0.000531651 3.12226e-08 2.48616e-06 
0 0 0 0.142237 0.293687 -0.0533394 0 884 197 0.00191542 -0.0081142 0.0121876 7.6482e-08 6.09553e-06 
0 0 0 -0.18245 -0.328833 0.147401 0 884 2064 -0.0443871 0.0537492 0.139416 5.89949e-07 4.7511e-05 
0 0 0 0.122892 -0.137669 -0.0280357 0 884 241 -0.0021295 0.000281625 0.00429608 3.4478e-08 2.74555e-06 
0 0 0 0.104019 0.393108 0.14486 0 884 158 -0.00211866 0.00477682 0.0421745 3.08602e-07 2.47104e-05 
0 0 0 0.36808 -0.177935 -0.00809446 0 884 58 -0.0182743 0.0100625 0.000685388 8.39064e-09 6.67818e-07 
0 0 0 0.0294285 -0.143468 -0.13121 0 854 1832 0.00669714 0.00332592 -0.000388806 8.97596e-08 7.15564e-06 
0 0 0 -0.0922997 0.635696 0.622704 0 854 315 0.0511276 -0.0123012 -0.0224095 2.35168e-07 1.88025e-05 
0 0 0 0.00678271 0.0719097 -0.112163 0 854 833 0.00388357 -0.000328967 0.00191372 5.43426e-08 4.32913e-06 
0 0 0 0.0553703 0.243465 0.192887 0 854 869 0.0538012 -0.0143822 -0.0107723 3.09544e-07 2.47863e-05 
0 0 0 -0.00472032 0.183817 0.246765 0 854 2261 0.00760029 -0.00309006 -0.00221193 7.4839e-08 5.96439e-06 
0 0 0 0.00596463 0.0647712 0.0693189 0 854 546 0.00483233 -0.00117979 -0.00210854 6.14249e-08 4.89402e-06 
0 0 0 -0.00454226 0.251594 -0.0844352 0 854 2119 0.00571366 0.00109294 0.0026395 6.13651e-08 4.88926e-06 
0 0 0 -0.0374916 0.164765 -0.0602892 0 854 226 0.00621321 -0.0226486 0.0128823 4.44746e-08 3.54231e-06 
0 0 0 0.166714 0.151747 0.0364451 0 854 1602 -0.00995834 0.00465486 -0.00176758 2.85406e-08 2.27248e-06 
0 0 0 -0.0109523 0.100743 0.23857 0 854 250 0.00449978 -0.0116314 -0.0154965 4.75232e-08 3.78536e-06 
0 0 0 0.00178173 0.0824171 0.301931 0 854 2085 0.0422565 -0.00349332 -0.00966347 2.43931e-07 1.95065e-05 
0 0 0 -0.0806616 0.358077 0.23943 0 854 713 0.0197916 -0.00915571 -0.00375498 1.05213e-07 8.39017e-06 
0 0 0 0.0300822 0.10433 -0.0594221 0 854 529 0.038549 -0.0199956 -0.00722575 2.42679e-07 1.94059e-05 
0 0 0 -0.0471839 0.0575012 0.234978 0 854 804 0.0105846 -0.00116324 -0.00516286 6.97659e-08 5.55952e-06 
0 0 0 -0.012415 0.12069 0.0959177 0 854 2202 0.0135308 -0.00173849 -0.000209509 1.07205e-07 8.5494e-06 
0 0 0 -0.016453 -0.0118643 0.138813 0 854 170 0.00563175 0.000510189 -0.00276927 5.31036e-08 4.23032e-06 
0 0 0 0.0131417 0.0209569 0.0584718 0 854 1083 0.0115636 5.42328e-05 -0.00123935 1.10242e-07 8.79207e-06 
0 0 0 -0.00472848 0.0544714 0.100517 0 854 86 0.00185577 -0.00497525 7.02446e-05 2.67332e-08 2.12849e-06 
0 0 0 0.101966 -0.0409671 0.0610438 0 853 962 -0.000568022 -0.00652342 -0.000603522 9.57516e-08 7.63424e-06 
0 0 0 0.0689862 -0.0414631 0.0656632 0 853 210 -0.00710284 -0.0794185 -0.000346244 3.86237e-07 3.09757e-05 
0 0 0 0.0242828 -0.0661535 0.0823 0 853 1418 -0.00969891 -0.0529239 -0.000633869 3.11238e-07 2.49228e-05 
0 0 0 0.103938 0.00425805 0.133034 0 853 1592 0.000196941 -0.00115733 -0.000544118 1.86249e-08 1.48267e-06 
0 0 0 -0.0932951 -0.0548585 0.144317 0 853 1877 0.000248461 -0.00103819 -0.000657329 6.44539e-08 5.13567e-06 
0 0 0 -0.00472848 0.0544714 0.100517 0 852 86 -0.00117078 -0.00542166 -0.00399572 2.79456e-08 2.22508e-06 
0 0 0 0.013998 -0.0127745 0.179439 0 852 881 0.000274772 -0.00914094 -0.000727309 9.54452e-08 7.60976e-06 
0 0 0 0.0407794 -0.000962528 0.18899 0 852 294 -0.0085881 -0.0142873 -0.00400931 1.18818e-07 9.47767e-06 
0 0 0 -0.109385 -0.0783555 0.0575711 0 852 1895 0.00273887 -0.0154529 -0.00154351 1.66857e-07 1.33224e-05 
0 0 0 0.101508 -0.0252351 0.349741 0 852 526 -0.00178929 -0.0148992 -0.00723154 1.35382e-07 1.08026e-05 
0 0 0 0.0748712 0.0772032 0.0406012 0 855 593 0.0234297 0.0116183 -0.00383471 2.02023e-07 1.61416e-05 
0 0 0 0.00267361 0.0275094 -0.00272902 0 894 380 -0.000835875 0.00109047 -0.0129967 1.12593e-07 8.98003e-06 
0 0 0 0.0126096 0.0201499 -0.0105926 0 894 620 -5.44175e-05 0.000560621 -0.00990318 9.88813e-08 7.88427e-06 
0 0 0 -0.0263134 0.0165587 0.0570069 0 894 328 -3.21383e-05 -0.000884276 -0.00882317 5.22779e-08 4.16448e-06 
0 0 0 0.00278186 -0.0681132 -0.0044985 0 894 1854 0.00173232 -8.93413e-05 -0.00557631 6.61399e-08 5.27019e-06 
0 0 0 0.0295828 -0.0983249 0.00257687 0 894 1268 0.000378732 0.00133897 -0.00143419 2.35142e-08 1.87208e-06 
0 0 0 0.0472208 -0.0733116 -0.00998705 0 894 398 -0.00510935 0.00168554 -0.0323009 2.08183e-07 1.66359e-05 
0 0 0 -0.0313332 -0.0487908 0.00384472 0 894 1474 0.00390212 -0.00060864 -0.00789861 7.74067e-08 6.16934e-06 
0 0 0 0.0292227 -0.0355885 0.0035775 0 894 273 -0.000313152 0.00015126 -0.000695539 1.25476e-08 9.98759e-07 
0 0 0 0.000618324 -0.141552 0.00370951 0 894 1879 -0.00116568 0.00147603 -0.00376164 4.61082e-08 3.67254e-06 
0 0 0 0.085296 -0.146906 -0.0210593 0 894 1059 -0.00018347 0.000831737 -0.00269433 5.41902e-08 4.31697e-06 
0 0 0 -0.0939351 0.0304079 0.00278226 0 894 1386 0.000164319 0.000888029 -0.00756618 7.57896e-08 6.04026e-06 
0 0 0 0.0721525 -0.0598131 -0.00248317 0 894 2063 -0.000195738 -6.61099e-07 -0.00303261 4.39259e-08 3.49857e-06 
0 0 0 0.0146515 -0.0498167 -0.00179088 0 894 854 8.45057e-06 1.35341e-05 3.19114e-05 2.07308e-09 1.64978e-07 
0 0 0 -0.0928346 -0.055994 0.00163153 0 894 1994 0.00315051 0.000302119 -0.00978242 9.09848e-08 7.2535e-06 
0 0 0 0.0401761 0.0139161 0.179657 0 852 1118 -0.00277333 -0.00177784 -0.0006557 1.87936e-08 1.49611e-06 
0 0 0 0.0177986 -6.62129e-05 0.234416 0 852 956 -3.05236e-05 -0.018601 -0.00600817 1.41009e-07 1.12528e-05 
0 0 0 -0.045067 -0.00336207 0.00962349 0 852 2191 -3.5389e-05 -0.0189818 0.00140317 1.44645e-07 1.15438e-05 
0 0 0 0.0235713 -0.0536677 -0.0381739 0 855 654 0.00150547 0.000295954 0.000692111 4.50582e-08 3.58884e-06 
0 0 0 0.00267361 0.0275094 -0.00272902 0 855 380 0.00150713 8.74995e-05 0.000190389 2.86001e-08 2.27722e-06 
0 0 0 0.045416 0.00979904 -0.0257902 0 855 1863 0.0100712 -0.000955167 0.000787413 1.20101e-07 9.5803e-06 
0 0 0 0.0238294 0.0401399 -0.0138153 0 855 1955 -0.000133959 -0.000576473 -5.22557e-05 2.63488e-08 2.09787e-06 
0 0 0 -0.0248497 0.0133756 0.01743 0 855 1667 0.005015 -0.00250174 -0.00016995 4.27267e-08 3.40298e-06 
0 0 0 -0.0280998 -0.058375 0.0764004 0 855 1805 0.00513641 0.0133224 -0.00673695 4.16532e-08 3.3174e-06 
0 0 0 -0.0795256 0.292529 0.107528 0 855 1207 0.0270201 -0.010358 -0.00867378 1.41592e-07 1.12994e-05 
0 0 0 0.015976 0.0931185 -0.00545148 0 855 1865 0.00709972 0.00014676 -0.00300627 8.41422e-08 6.70707e-06 
0 0 0 0.0105169 -0.055055 -0.0165065 0 855 1487 0.00362971 -0.00323514 0.00160336 5.47849e-08 4.36441e-06 
0 0 0 -0.030312 -0.0434108 0.0936849 0 855 702 0.0128274 -0.00180832 0.000270458 9.31718e-08 7.42817e-06 
0 0 0 -0.00514538 -0.0704884 0.0395021 0 855 802 0.0221999 0.00104658 -0.00400436 1.55939e-07 1.2448e-05 
0 0 0 0.00730846 -0.0422956 0.0826197 0 855 701 -0.000134054 2.11426e-05 -6.36052e-05 7.62317e-09 6.06724e-07 
0 0 0 0.00806522 -0.0372542 0.0405716 0 855 22 0.00150542 3.67534e-05 -0.000751812 3.28884e-08 2.61889e-06 
0 0 0 0.00430282 -0.0281676 0.0275566 0 855 17 0.00573876 3.83804e-05 0.00122264 6.72215e-08 5.35649e-06 
0 0 0 -0.00297829 -0.0520374 0.0546378 0 855 1326 0.00372275 0.000862861 -0.00134808 4.62718e-08 3.68559e-06 
0 0 0 0.00278186 -0.0681132 -0.0044985 0 855 1854 0.00150006 9.45985e-05 0.000221237 2.86058e-08 2.27768e-06 
0 0 0 -0.0115134 0.0216457 0.012066 0 855 1816 0.0059802 0.00158857 -0.000813772 5.89371e-08 4.69558e-06 
0 0 0 0.0596057 0.0167878 0.435465 0 854 2153 0.00257853 -0.00467045 -0.0367461 8.0233e-08 6.39496e-06 
0 0 0 -0.0179182 0.153763 0.186832 0 854 1365 0.00721764 -0.00331299 -0.00143096 6.40634e-08 5.10452e-06 
0 0 0 0.0197884 0.133007 0.161636 0 854 1606 -0.000746791 7.19423e-05 -0.0003664 3.54673e-09 2.8226e-07 
0 0 0 -4.50098 -17.1386 53.5789 0 934 1119 -0.476394 0.993925 0.33315 4.00417e-07 3.21221e-05 
0 0 0 2.96213 -12.2458 23.2434 0 932 1258 0.255792 0.57338 0.231948 5.98984e-07 4.82476e-05 
0 0 0 -13.991 2.98292 50.0273 0 937 2330 -0.0480962 0.421941 0.189473 1.9683e-06 0.000163299 
0 0 0 -8.97954 -14.705 46.0451 0 933 2320 0.0765981 0.406777 0.380491 2.07725e-06 0.000172764 
0 0 0 -1.61724 15.1576 14.7832 0 944 2010 0.0230852 0.113969 -0.030019 9.08324e-07 7.36377e-05 
0 0 0 -8.06759 26.6294 46.2967 0 942 339 -0.262439 1.75756 -1.51793 2.90235e-06 0.000246103 
0 85.3241 3.3716 1.82679e-06 82.3499 5.28125 1 138 753 -0.00225998 -0.000563813 -0.00637535 6.69329e-08 5.33346e-06 
0 95.6539 5.89583 -0.0754938 95.7415 5.25601 1 2717 1116 19.0095 22.8323 -1.41102 1.18703e-05 0.00152928 
0 85.8611 5.84233 1.82679e-06 82.3499 5.28125 1 2703 753 -0.014424 0.0395362 -0.0619262 3.29894e-07 2.64268e-05 
0 85.6656 6.06918 1.82679e-06 82.3499 5.28125 1 2702 753 -0.0202138 0.0624208 -0.0998949 4.49484e-07 3.60945e-05 
0 75.4555 6.38365 -1.17694e-05 75.5305 5.45662 1 92 303 -0.00847051 0.000242805 -0.00474683 8.17835e-08 6.51875e-06 
0 75.4637 6.48604 -1.17694e-05 75.5305 5.45662 1 91 303 -0.00947811 0.00193037 -0.00459158 9.06529e-08 7.22698e-06 
0 75.3249 8.21919 -1.17694e-05 75.5305 5.45662 1 63 303 -0.0902653 0.0996664 -0.0660211 5.13126e-07 4.12589e-05 
0 75.2826 9.27763 -1.17694e-05 75.5305 5.45662 1 85 303 -0.0117145 0.0368891 -0.0163171 2.24863e-07 1.79748e-05 
0 75.3147 9.19548 -1.17694e-05 75.5305 5.45662 1 86 303 -0.00740317 0.0177238 -0.0082711 1.41489e-07 1.12912e-05 
0 85.3296 3.35376 1.82679e-06 82.3499 5.28125 1 137 753 -0.00227218 -0.000600743 -0.00651097 6.78139e-08 5.40376e-06 
0 85.7498 3.49642 1.82679e-06 82.3499 5.28125 1 134 753 0.0138607 -0.0342967 -0.278021 8.10673e-07 6.55867e-05 
0 85.6846 3.48742 1.82679e-06 82.3499 5.28125 1 136 753 0.0167582 -0.452659 -0.327306 1.23632e-06 0.00010093 
0 85.5817 5.02646 1.82679e-06 82.3499 5.28125 1 123 753 -0.0533531 0.0405385 -0.400381 1.00401e-06 8.15592e-05 
0 85.6703 5.00043 1.82679e-06 82.3499 5.28125 1 2650 753 0.0846896 0.0878914 -0.216918 7.28807e-07 5.88629e-05 
0 85.3653 5.41834 1.82679e-06 82.3499 5.28125 1 125 753 -0.103888 0.11622 -0.366151 9.91048e-07 8.04846e-05 
0 85.8903 3.84487 1.82679e-06 82.3499 5.28125 1 120 753 0.0446632 -0.282436 -0.27496 9.89006e-07 8.03153e-05 
0 85.3764 5.40449 1.82679e-06 82.3499 5.28125 1 124 753 -0.101141 0.112412 -0.368364 9.9144e-07 8.0517e-05 
0 85.3795 5.60981 1.82679e-06 82.3499 5.28125 1 2649 753 0.0925558 0.0511063 -0.507589 1.17753e-06 9.60096e-05 
0 95.7454 4.48458 -0.0754938 95.7415 5.25601 1 2698 1116 -20.0229 -19.1446 -2.8203 1.16863e-05 0.00147072 
0 85.6311 6.06712 1.82679e-06 82.3499 5.28125 1 126 753 -0.0219405 0.0628249 -0.100969 4.5298e-07 3.63778e-05 
0 85.5092 5.94884 1.82679e-06 82.3499 5.28125 1 2647 753 0.0542367 0.0353594 -0.459403 1.09536e-06 8.91527e-05 
0 85.4736 7.52593 1.82679e-06 82.3499 5.28125 1 2672 753 -0.000683813 0.0542955 -0.324109 8.74462e-07 7.08421e-05 
0 85.3145 7.80266 1.82679e-06 82.3499 5.28125 1 2673 753 -0.00263394 0.0512433 -0.208203 6.60797e-07 5.32947e-05 
0 85.661 7.28483 1.82679e-06 82.3499 5.28125 1 2644 753 -0.00802818 0.0227275 -0.228396 6.91294e-07 5.57896e-05 
0 85.5475 7.53041 1.82679e-06 82.3499 5.28125 1 2674 753 0.0156506 0.0227854 -0.0889167 3.81106e-07 3.0561e-05 
0 85.7407 7.28702 1.82679e-06 82.3499 5.28125 1 2724 753 0.00151463 0.0509487 -0.0337943 2.88501e-07 2.30914e-05 
0 94.5666 2.02658 -0.0754938 95.7415 5.25601 1 2705 1116 -0.00257654 -0.745874 -0.0220927 1.41388e-06 0.00011587 
0 94.5907 2.14653 -0.0754938 95.7415 5.25601 1 2704 1116 0.0337009 -1.5696 0.0252302 2.33996e-06 0.000195792 
0 85.7317 5.0503 1.82679e-06 82.3499 5.28125 1 2721 753 0.0614328 0.0809386 -0.220372 7.16776e-07 5.78767e-05 
0 85.5704 7.48464 1.82679e-06 82.3499 5.28125 1 2726 753 0.018685 0.0253654 -0.0856301 3.76018e-07 3.01498e-05 
0 85.8962 5.30051 1.82679e-06 82.3499 5.28125 1 2722 753 0.0261266 0.0596171 -0.139046 5.30278e-07 4.2653e-05 
0 94.4992 3.55778 -0.0754938 95.7415 5.25601 1 2722 1116 0.735484 -1.21704 1.09773 2.52394e-06 0.000212094 
0 94.547 1.91484 -0.0754938 95.7415 5.25601 1 2706 1116 -0.0356022 -0.196917 -0.0352521 5.14932e-07 4.14056e-05 
0 85.7724 3.56181 1.82679e-06 82.3499 5.28125 1 2707 753 0.0280909 -0.0213416 -0.275638 8.01364e-07 6.48209e-05 
0 0 0 -6.43497e-07 2.40788e-07 -5.43182e-10 0 885 23 -0.159188 -0.67411 -28.6419 1.17814e-05 0.00150013 
0 0 0 -3.6988e-15 -1.00227e-16 1.40912e-12 0 885 765 -0.827613 -0.22418 -28.6842 1.1786e-05 0.00150161 
0 0 0 6.35431e-07 -1.12356e-06 1.69859e-09 0 885 1484 0.155604 0.764988 -28.5574 1.17721e-05 0.00149718 
0 0 0 -6.99083e-07 1.72566e-07 -1.85076e-09 0 885 124 -0.387711 -1.00352 -28.7334 1.17914e-05 0.00150332 
0 0 0 9.98594e-72 1.82797e-19 5.05152e-12 0 885 1052 3.55683e-70 8.21841e-05 -28.6382 1.1781e-05 0.0015 
0 0 0 5.02599e-125 -1.41958e-19 -2.24235e-12 0 885 1441 1.98875e-122 8.21841e-05 -28.6382 1.1781e-05 0.0015 
0 0 0 -5.7632e-45 1.41947e-19 2.80435e-12 0 885 173 -4.44948e-44 8.21841e-05 -28.6382 1.1781e-05 0.0015 
0 0 0 -7.4496e-224 5.51747e-21 -3.37581e-12 0 885 874 5.56542e-219 8.21841e-05 -28.6382 1.1781e-05 0.0015 
0 0 0 -2.07464e-07 -5.49785e-07 -2.21192e-10 0 885 281 1.03451 -0.263497 -28.4349 1.17585e-05 0.00149289 
0 0 0 -1.62392e-07 9.00928e-07 2.34011e-10 0 885 2235 -1.22223 0.676308 -28.8419 1.18031e-05 0.0015071 
0 0 0 -2.76951e-11 -2.18604e-11 3.59015e-13 0 885 1154 7.27141e-12 8.21841e-05 -28.6382 1.1781e-05 0.0015 
0 0 0 3.69857e-07 -3.51144e-07 -1.31388e-11 0 885 171 -0.340238 -0.279348 -28.6383 1.1781e-05 0.0015 
0 0 0 -6.43497e-07 2.40788e-07 -5.43182e-10 0 850 23 -0.157238 -0.665851 28.6345 1.17806e-05 0.00149987 
0 0 0 -3.6988e-15 -1.00227e-16 1.40912e-12 0 850 765 -0.701868 -0.190106 28.5922 1.17759e-05 0.00149839 
0 0 0 6.35431e-07 -1.12356e-06 1.69859e-09 0 850 1484 0.295251 1.00941 28.7191 1.17898e-05 0.00150282 
0 0 0 -6.99083e-07 1.72566e-07 -1.85076e-09 0 850 124 -0.292058 -0.755914 28.543 1.17705e-05 0.00149668 
0 0 0 9.98594e-72 1.82797e-19 5.05152e-12 0 850 1052 -3.41659e-70 8.21841e-05 28.6382 1.1781e-05 0.0015 
0 0 0 5.02599e-125 -1.41958e-19 -2.24235e-12 0 850 1441 -1.99188e-122 8.21841e-05 28.6382 1.1781e-05 0.0015 
0 0 0 -5.7632e-45 1.41947e-19 2.80435e-12 0 850 173 6.23345e-44 8.21841e-05 28.6382 1.1781e-05 0.0015 
0 0 0 -7.4496e-224 5.51747e-21 -3.37581e-12 0 850 874 -5.56524e-219 8.21841e-05 28.6382 1.1781e-05 0.0015 
0 0 0 -2.07464e-07 -5.49785e-07 -2.21192e-10 0 850 281 1.56126 -0.397706 28.842 1.18031e-05 0.00150711 
0 0 0 -1.62392e-07 9.00928e-07 2.34011e-10 0 850 2235 -0.695236 0.5423 28.435 1.17585e-05 0.0014929 
0 0 0 -2.76951e-11 -2.18604e-11 3.59015e-13 0 850 1154 1.43109e-11 8.21841e-05 28.6382 1.1781e-05 0.0015 
0 0 0 3.69857e-07 -3.51144e-07 -1.31388e-11 0 850 171 -0.338066 -0.277564 28.6381 1.1781e-05 0.0015 
0 3.53369 -85.787 -0.0368825 5.29878 -82.3154 1 529 1181 0.00106329 -0.158521 0.00345722 5.51539e-07 4.43826e-05 
0 3.85962 -85.8812 -0.0368825 5.29878 -82.3154 1 530 1181 -0.162859 -0.272862 0.185594 9.516e-07 7.72165e-05 
0 3.73642 -85.799 -0.0368825 5.29878 -82.3154 1 1861 1181 0.0161142 -0.119708 -0.00368327 4.60816e-07 3.7013e-05 
0 4.43553 -86.1234 -0.0368825 5.29878 -82.3154 1 1874 1181 -0.0202763 -0.191447 -0.0438255 6.36423e-07 5.13029e-05 
0 4.52359 -86.1364 -0.0368825 5.29878 -82.3154 1 1873 1181 -0.0287424 -0.197925 -0.0501198 6.54783e-07 5.2803e-05 
0 5.37129 -85.693 -0.0368825 5.29878 -82.3154 1 1883 1181 0.0229682 -0.059765 -0.0301132 3.19242e-07 2.55679e-05 
0 5.59144 -85.8727 -0.0368825 5.29878 -82.3154 1 1889 1181 0.00855178 -0.0255063 -0.0150905 1.86468e-07 1.48941e-05 
0 5.70187 -85.9628 -0.0368825 5.29878 -82.3154 1 1890 1181 0.0001635 -0.00039144 -0.000264393 1.975e-08 1.57227e-06 
0 6.66754 -85.6833 -0.0368825 5.29878 -82.3154 1 1842 1181 -0.018025 -0.341855 -0.0532984 9.07074e-07 7.35345e-05 
0 6.68151 -85.6885 -0.0368825 5.29878 -82.3154 1 1826 1181 -0.0186584 -0.342613 -0.0508155 9.07853e-07 7.35988e-05 
0 7.23012 -85.6828 -0.0368825 5.29878 -82.3154 1 1831 1181 0.00328138 -0.302598 -0.0168812 8.33939e-07 6.75019e-05 
0 7.15045 -85.6628 -0.0368825 5.29878 -82.3154 1 1828 1181 -0.00366736 -0.361457 -0.0242782 9.35535e-07 7.58873e-05 
0 7.52152 -85.5609 -0.0368825 5.29878 -82.3154 1 1830 1181 0.053946 -0.104916 -0.0810307 5.12719e-07 4.12258e-05 
0 7.14833 -85.6568 -0.0368825 5.29878 -82.3154 1 1827 1181 -0.00417578 -0.361988 -0.0259713 9.36511e-07 7.59679e-05 
0 9.2261 -75.2891 0.00693391 5.56577 -75.5041 1 493 405 0.0216916 -0.025352 -0.054311 2.97396e-07 2.38077e-05 
0 3.95974 -85.8353 -0.0368825 5.29878 -82.3154 1 526 1181 0.113608 -0.384793 0.259742 1.12751e-06 9.18329e-05 
0 3.9545 -85.8593 -0.0368825 5.29878 -82.3154 1 527 1181 0.0814496 -0.345561 0.30382 1.11089e-06 9.04472e-05 
0 4.41311 -85.7994 -0.0368825 5.29878 -82.3154 1 541 1181 0.0306501 -0.507336 0.0548344 1.19235e-06 9.72482e-05 
0 5.01883 -85.7265 -0.0368825 5.29878 -82.3154 1 523 1181 -0.080879 -0.145508 0.0081181 6.1748e-07 4.97564e-05 
0 5.09454 -86.0806 -0.0368825 5.29878 -82.3154 1 1871 1181 -0.0902504 -0.194429 -0.0832645 7.04331e-07 5.6857e-05 
0 5.45293 -85.979 -0.0368825 5.29878 -82.3154 1 1870 1181 -0.0167555 -0.0509596 -0.0286384 3.04227e-07 2.4358e-05 
0 5.55079 -85.8753 -0.0368825 5.29878 -82.3154 1 1869 1181 -0.0432809 -0.105149 -0.0649464 4.92364e-07 3.95726e-05 
0 5.77732 -85.6354 -0.0368825 5.29878 -82.3154 1 1868 1181 -0.103996 -0.145185 -0.115582 6.71384e-07 5.41604e-05 
0 6.15847 -86.0303 -0.0368825 5.29878 -82.3154 1 1892 1181 0.01964 -0.110925 -0.0896028 5.13184e-07 4.12636e-05 
0 6.68552 -85.987 -0.0368825 5.29878 -82.3154 1 1893 1181 0.0734881 -0.123642 -0.0852087 5.67578e-07 4.56883e-05 
0 7.41219 -85.5293 -0.0368825 5.29878 -82.3154 1 1885 1181 0.0260297 -0.100316 -0.107928 5.29805e-07 4.26145e-05 
0 8.33787 -75.2994 0.00693391 5.56577 -75.5041 1 491 405 0.0643237 -0.0523782 -0.0722113 4.13688e-07 3.31957e-05 
0 9.3764 -75.2194 0.00693391 5.56577 -75.5041 1 494 405 0.0133558 -0.0307815 -0.0478353 2.62596e-07 2.10071e-05 
0 0 0 0.0145453 -0.142127 0.00145799 0 895 1251 -0.000126116 0.000528352 -0.00108639 2.00375e-08 1.59517e-06 
0 0 0 0.0609018 -0.199017 -0.00567158 0 895 2043 6.2024e-05 5.37462e-05 0.000164142 3.34181e-09 2.6595e-07 
0 0 0 -0.0145501 -0.140124 -0.00801951 0 895 1763 0.0022656 0.00174524 -0.000629811 2.21679e-08 1.76484e-06 
0 0 0 0.0158456 -0.0779976 0.00294572 0 895 929 -0.00239275 -5.05734e-05 -0.000348641 6.97639e-09 5.55241e-07 
0 0 0 0.000979784 -0.0861276 0.00288932 0 895 1170 0.000126567 0.000244081 -0.00054989 1.07776e-08 8.57841e-07 
0 0 0 0.0064183 -0.0202328 0.0351463 0 853 2081 0.00335403 -0.0173 0.00366059 1.45089e-07 1.15793e-05 
0 0 0 0.086959 -0.00625717 0.262637 0 853 1229 0.00601372 0.00018735 -0.00942902 3.40446e-09 2.70937e-07 
0 0 0 0.157357 -0.0169267 0.0760419 0 853 66 -0.00331658 -0.00995571 -0.00371205 1.02895e-07 8.20499e-06 
0 0 0 0.100995 -0.00788424 0.233867 0 853 1897 0.00186678 -0.0172142 -0.0034428 1.3809e-07 1.10192e-05 
0 0 0 0.00118553 -0.0479419 0.0015088 0 853 1257 -0.000708867 -0.000700533 -0.00079056 5.61865e-08 4.47619e-06 
0 0 0 0.206133 -0.0581791 0.213471 0 853 1424 -0.00190711 0.00279806 -0.000782789 1.09812e-08 8.74045e-07 
0 0 0 -0.0789861 -0.020664 0.270311 0 853 407 0.00595152 -0.0661037 -0.00153827 3.3578e-07 2.69014e-05 
0 0 0 -0.0480768 -0.0062247 0.00994155 0 853 969 0.000623364 -0.0108803 -0.000694844 1.02263e-07 8.15442e-06 
0 0 0 0.070142 -0.00497783 0.144059 0 853 2214 -0.00295738 -0.0135533 -0.000730768 1.1697e-07 9.32991e-06 
0 0 0 -0.0451832 -0.0243012 0.283435 0 853 1518 -0.000494736 -0.00802979 -0.0039843 9.53062e-08 7.59866e-06 
0 0 0 0.0345635 0.167012 0.134435 0 853 1195 0.0166103 -0.0854654 -0.0385994 3.20388e-07 2.56603e-05 
0 0 0 -0.00628911 -0.00440159 0.170074 0 853 1373 5.5352e-05 0.000123572 2.74525e-05 2.49492e-09 1.98549e-07 
0 0 0 0.0769411 -0.0123869 0.239001 0 853 1493 0.000124066 -0.0025455 -0.00126669 4.65876e-08 3.71077e-06 
0 0 0 -0.0276129 0.0909569 0.110893 0 853 1639 -0.0539398 -0.190861 0.00803718 6.26951e-07 5.05295e-05 
0 0 0 -0.00638049 -0.0249259 0.0905343 0 853 2092 6.3375e-05 0.000210443 -8.39949e-05 2.63285e-08 2.09626e-06 
0 0 0 0.0509976 -0.00666582 0.0883759 0 853 780 -0.000443273 -0.00145307 -0.000686111 3.1188e-08 2.48341e-06 
0 0 0 0.0513222 -0.00790137 -0.151039 0 853 1233 0.00230509 -0.0090347 0.00135238 9.18897e-08 7.32577e-06 
0 0 0 -0.0120036 -0.018263 0.0181977 0 853 1674 0.00026543 0.000571713 0.000106118 1.1873e-08 9.45046e-07 
0 0 0 -0.0312432 0.173496 0.350307 0 853 1801 -0.008619 -0.015333 -0.00982836 3.64995e-08 2.90665e-06 
0 0 0 3.56166e-17 3.31549e-18 -2.2423e-12 0 884 331 -2.29395e-17 8.21841e-05 -28.6382 1.1781e-05 0.0015 
0 0 0 0.490814 -0.251261 0.420023 0 884 792 -0.00457286 -0.00311284 -0.0183484 1.88075e-07 1.50229e-05 
0 0 0 0.0794413 -0.00521558 -0.00495999 0 884 935 -0.00212183 0.000101681 0.00424852 4.94261e-08 3.93708e-06 
0 0 0 0.0541669 0.0468167 0.0262109 0 884 1301 -0.00050853 -0.000942797 0.0021424 5.30334e-08 4.22472e-06 
0 0 0 0.0692164 -0.0177757 0.00926037 0 884 993 -0.00142331 0.000288176 0.0114164 1.07173e-07 8.54685e-06 
0 0 0 0.0267132 -0.101103 0.00647531 0 884 676 -0.00190322 -0.000677022 0.00314739 4.77978e-08 3.80725e-06 
0 0 0 0.0400474 0.548273 -0.595281 0 884 967 0.0482833 -0.0626672 0.282002 6.58044e-07 5.30696e-05 
0 0 0 0.041308 0.0426783 -0.136985 0 884 1679 -0.000376469 0.000852233 0.00978374 2.02052e-08 1.60853e-06 
0 0 0 -0.0247739 0.0109023 0.0354849 0 884 1016 0.00130724 -0.000686566 0.0262547 1.94807e-07 1.55628e-05 
0 0 0 -0.0627681 -0.126348 0.00309308 0 885 1991 0.000183479 0.000149867 0.000473814 1.52376e-08 1.21294e-06 
0 0 0 3.56166e-17 3.31549e-18 -2.2423e-12 0 850 331 7.5331e-19 8.21841e-05 28.6382 1.1781e-05 0.0015 
0 0 0 0.0481939 -0.0427212 -0.0013597 0 894 1249 -0.00253174 -0.0015111 -0.0036371 4.8521e-08 3.86492e-06 
0 0 0 0.0743115 -0.251311 -0.00418553 0 894 2045 2.02905e-05 0.000788548 -0.000174118 1.10128e-08 8.76566e-07 
0 0 0 -0.0295708 0.0476717 0.0129224 0 894 18 -0.00122507 0.000948976 -0.00985047 8.48092e-08 6.76033e-06 
0 0 0 -0.161798 -0.162607 -0.0115417 0 894 1820 0.000820542 0.00128056 -0.00811925 8.81875e-08 7.03009e-06 
0 0 0 0.017085 -0.198204 0.00827994 0 894 1563 0.000607237 0.000940686 -0.00223931 2.8243e-08 2.24877e-06 
0 0 0 0.0189336 -0.241856 -0.00698409 0 894 1908 -0.00275741 0.00233948 -0.0109539 1.03138e-07 8.22438e-06 
0 0 0 0.0469553 -0.252232 -0.00578821 0 894 2139 0.00456674 0.00864744 -0.00253063 4.16203e-08 3.31478e-06 
0 0 0 -0.0426053 -0.120358 -0.0215486 0 894 95 0.000790931 0.00355368 -0.0156555 1.3735e-07 1.096e-05 
0 0 0 0 -2.02961e-20 -4.48962e-12 0 894 272 1.75288e-305 8.21841e-05 28.6382 1.1781e-05 0.0015 
0 0 0 0.0926705 0.0212065 0.289053 0 852 1187 -0.000451634 -0.00726683 -0.00360524 6.24008e-08 4.97188e-06 
0 0 0 0.0600542 -0.0116119 0.141538 0 852 1103 0.000613201 -0.00867326 1.77408e-05 9.18e-08 7.3186e-06 
0 0 0 0.0587779 0.00210939 0.216939 0 852 1037 0.00228775 -0.00634379 -0.00184814 6.75851e-08 5.3855e-06 
0 0 0 0 -2.02961e-20 -4.48962e-12 0 849 272 -1.75288e-305 8.21841e-05 -28.6382 1.1781e-05 0.0015 
0 0 0 0.0469979 -0.181279 -0.0205718 0 895 1809 -0.000593028 0.000908658 -0.00437193 6.75404e-08 5.38193e-06 
0 0 0 -0.00669752 -0.144259 -0.0167745 0 895 2137 0.0016105 -0.000494084 -0.00336917 5.69348e-08 4.53587e-06 
0 0 0 0.0557944 -0.132576 0.00324103 0 895 337 -0.00356882 0.000123284 -0.000655375 1.22093e-08 9.71825e-07 
0 0 0 -0.00447949 -0.219398 0.02615 0 895 186 0.0061039 0.0103998 -0.00794156 6.42033e-08 5.11568e-06 
0 0 0 -0.00263283 -0.0397334 -0.0178395 0 895 1410 -0.00212549 -0.000171516 -0.0112217 1.10932e-07 8.84722e-06 
0 0 0 -0.0872932 -0.199933 -0.00308244 0 895 1860 0.00258256 0.00633464 -0.000752103 1.94213e-08 1.54609e-06 
0 0 0 0.093616 -0.0658351 -0.00273895 0 895 2094 -1.83401e-05 0.000686345 -0.00247951 3.88835e-08 3.09665e-06 
0 0 0 -0.00722701 -0.000252563 0.0506786 0 853 560 0.000741762 -0.00525963 0.000155001 6.09937e-08 4.85963e-06 
0 0 0 -1.71011e-06 -2.82424e-13 -3.73972e-13 0 961 428 7.46485e-15 9.45454 12.5197 9.45155e-06 0.00100427 
0 0 0 -6.6441 33.217 -16.0655 0 959 2310 -0.0202502 -0.818981 -1.20023 2.33835e-06 0.000195649 
0 0 0 -1.71011e-06 -2.82424e-13 -3.73972e-13 0 753 428 -7.33378e-15 -9.45437 -12.5197 9.45152e-06 0.00100427 
0 0 0 -1.0367 -7.77376 -30.8244 0 904 445 -0.00249638 0.0626322 -0.0980112 7.54908e-07 6.10041e-05 
0 0 0 0.00327602 -0.000714501 0.000372018 0 963 716 -0.800541 4.95321 13.3844 8.82349e-06 0.000908489 
0 0 0 -0.441432 23.4451 -51.49 0 899 1526 -3.79901 -9.83758 -0.0682902 5.85003e-06 0.000537851 
0 0 0 -0.0165591 -0.0952452 -0.0772098 0 892 1200 -0.000865972 -0.000271455 0.000337326 3.26021e-08 2.59608e-06 
0 0 0 -0.00524247 -0.106271 -0.019105 0 892 1702 2.17047e-05 9.38627e-06 -5.44721e-06 7.85153e-09 6.24903e-07 
0 0 0 0.00327602 -0.000714501 0.000372018 0 751 716 0.618123 -5.72841 -8.96153 7.71382e-06 0.000757175 
0 0 0 0.00327602 -0.000714501 0.000372018 0 752 716 0.183156 0.775168 -4.42282 4.71802e-06 0.000419428 
0 0 0 0.0828758 -0.186054 -0.0459404 0 888 1647 -0.0138041 0.00619664 -0.00303977 7.03771e-08 5.60829e-06 
0 0 0 -0.0185798 0.00958357 0.250158 0 888 997 -0.00458846 0.000918334 -0.00210241 6.78751e-08 5.40865e-06 
0 0 0 -0.0217128 0.162901 0.0535803 0 888 317 -0.022323 0.00115463 -0.0111016 1.7019e-07 1.35894e-05 
0 0 0 -0.000940424 0.184588 0.109665 0 888 1019 -9.7369e-05 -3.76739e-05 -3.08359e-05 5.44937e-09 4.33694e-07 
0 0 0 -0.00763531 0.0561811 0.285179 0 888 1442 7.09514e-05 3.18715e-05 -1.558e-05 9.74566e-09 7.75686e-07 
0 0 0 0.785908 0.213814 -0.027552 0 888 382 -0.121299 0.0452593 -0.0724365 2.0115e-07 1.60716e-05 
0 0 0 -0.0182853 -0.0835514 0.191545 0 888 305 -0.00905632 0.00199053 -0.00360863 9.81777e-08 7.82806e-06 
0 0 0 -0.160652 0.503613 0.408833 0 888 1564 -0.213828 -0.0234544 -0.0359004 7.6453e-07 6.1794e-05 
0 0 0 -0.0243194 -0.0239731 0.264898 0 888 1440 0.000749479 0.00660567 -0.0275971 1.62736e-08 1.29543e-06 
0 0 0 0.0142025 0.113466 0.198527 0 888 611 -0.000762309 -0.000317773 -0.000210474 4.95261e-09 3.94155e-07 
0 0 0 0.323228 0.737013 0.302637 0 888 892 -0.0817108 -0.0237139 0.0332688 2.45877e-07 1.9663e-05 
0 0 0 -0.00707592 0.00610241 0.248413 0 888 209 -0.00243527 1.1532e-05 -0.00121758 4.1654e-08 3.31747e-06 
0 0 0 -0.0129249 -0.11009 0.0328256 0 888 1192 -0.0326563 -0.00675566 0.00180699 2.11058e-07 1.68666e-05 
0 0 0 -0.00311332 -0.0409696 -0.0668811 0 888 1898 -0.00559033 0.0056227 -0.00180413 6.53534e-08 5.20744e-06 
0 0 0 0.179388 0.356168 0.0381508 0 888 825 -0.0423085 -0.0735957 0.0426768 1.62094e-07 1.29409e-05 
0 0 0 -0.0581442 0.0211187 0.263102 0 888 25 -0.0346466 0.00981601 0.00107064 2.4051e-07 1.92316e-05 
0 0 0 -0.00141836 0.174428 0.107671 0 888 1595 -0.00128086 -0.00754452 0.00182 2.49077e-08 1.98308e-06 
0 0 0 -0.0670953 0.0225885 -0.0156801 0 853 2051 -0.00183019 -0.0146722 0.00838406 1.08056e-07 8.61735e-06 
0 0 0 -0.0180787 0.00157693 0.22299 0 853 378 -0.00242062 -0.0202283 -0.00446159 1.4824e-07 1.18316e-05 
0 0 0 -0.016413 -0.116106 -0.0942865 0 890 1042 -4.41243e-05 6.22062e-06 2.1167e-05 2.16303e-08 1.72203e-06 
0 0 0 -0.00184857 -0.147512 -0.00971641 0 891 276 -0.00526696 0.00242165 -0.0010348 6.20875e-08 4.94688e-06 
0 0 0 0.0207379 -0.167971 0.0832135 0 891 1814 -0.0170282 0.00325763 0.00232326 1.21881e-07 9.7226e-06 
0 0 0 0.0208948 -0.121606 -0.0133048 0 893 1707 -0.00375814 -0.00168715 -0.000827305 3.43408e-08 2.73463e-06 
0 0 0 -0.0026507 -0.0969778 -0.0187321 0 892 2096 -0.00402073 0.000618436 0.00164979 5.26695e-08 4.19571e-06 
0 0 0 -0.0033181 -0.156334 -0.0190826 0 892 1345 -0.000227284 0.00189678 0.00137162 1.11186e-08 8.84988e-07 
0 0 0 0.00863158 -0.0591969 -0.00351142 0 892 1494 -0.00970549 -0.000834401 0.000992756 8.63978e-08 6.88718e-06 
0 0 0 -0.0171281 -0.133067 0.000630777 0 895 960 4.05982e-05 0.000369269 -0.000742988 1.59446e-08 1.26924e-06 
0 0 0 -0.0216178 -0.157214 -0.00258086 0 895 1638 -0.000683134 0.00336985 -0.00595419 6.77096e-08 5.39543e-06 
0 0 0 0.0208948 -0.121606 -0.0133048 0 895 1707 0.000157212 -0.000227167 -0.00425628 6.1783e-08 4.9226e-06 
0 0 0 0.00863158 -0.0591969 -0.00351142 0 895 1494 -0.00286805 -0.000412043 -0.00351326 4.8938e-08 3.89816e-06 
0 0 0 0.0499611 -0.0531013 0.0868021 0 888 1703 -0.0139364 -0.00174854 -0.00260962 8.8886e-08 7.08588e-06 
0 0 0 -0.00107329 -0.00126556 0.106563 0 888 468 2.29759e-05 6.80415e-06 -9.25618e-06 3.96441e-10 3.1548e-08 
0 0 0 0.0198478 0.0504535 0.0872861 0 888 744 -0.00874069 -0.00153854 -0.000935977 7.34685e-08 5.85501e-06 
0 0 0 -0.00983858 -0.058952 0.130185 0 888 433 -0.00340947 0.00495824 -0.01301 5.24478e-08 4.17803e-06 