ITEM: TIMESTEP
18700000
ITEM: NUMBER OF ENTRIES
523
ITEM: BOX BOUNDS ff ff ff
-0.01 0.45
-0.15 0.15
-0.08 0.1
ITEM: ENTRIES c_pwc[1] c_pwc[2] c_pwc[3] c_pwc[4] c_pwc[5] c_pwc[6] c_pwc[7] c_pwc[8] c_pwc[9] c_pwc[10] c_pwc[11] c_pwc[12] c_pwc[13] c_pwc[14] 
0 0 0 2.99615 -17.9707 34.2427 0 934 938 0.17988 2.15638 1.6189 1.10847e-06 9.02455e-05 
0 0 0 -6.34517 39.6635 2.48589 0 954 2115 -0.703361 0.36765 -1.35799 8.88796e-07 7.2025e-05 
0 0 0 -2.31611e-70 3.0449e-19 3.92801e-12 0 850 393 -1.35278e-68 8.21841e-05 28.6382 1.1781e-05 0.0015 
0 0 0 7.41691e-79 -6.08986e-20 5.66809e-13 0 850 1145 5.52737e-78 8.21841e-05 28.6382 1.1781e-05 0.0015 
0 0 0 -0.0185933 0.0182347 0.0475844 0 850 465 0.910622 0.206484 28.7388 1.17938e-05 0.0015041 
0 0 0 -1.77972e-05 -3.19789e-05 6.04011e-07 0 850 665 0.311334 0.828265 28.7533 1.17935e-05 0.00150402 
0 0 0 -2.31611e-70 3.0449e-19 3.92801e-12 0 885 393 5.03415e-69 8.21841e-05 -28.6382 1.1781e-05 0.0015 
0 0 0 -0.0185933 0.0182347 0.0475844 0 885 465 0.652131 0.155743 -28.5377 1.1768e-05 0.0014959 
0 0 0 -1.77972e-05 -3.19789e-05 6.04011e-07 0 885 665 0.23499 0.505173 -28.5232 1.17683e-05 0.00149598 
0 0 0 7.41691e-79 -6.08986e-20 5.66809e-13 0 884 1145 -3.87484e-78 8.21841e-05 -28.6382 1.1781e-05 0.0015 
0 0 0 1.19188 3.35918 -1.20976 0 855 670 -0.0449564 0.00175072 0.00401623 5.00657e-07 4.02459e-05 
0 0 0 0.0245367 2.52567 -1.36505 0 855 1388 0.00425383 -0.24298 0.104853 6.92759e-08 5.52042e-06 
0 0 0 0.180688 0.195038 -0.162382 0 884 1958 -0.000814597 0.00479118 0.00845985 7.85575e-09 6.25239e-07 
0 0 0 0.284643 -0.0021839 0.168039 0 884 197 -0.057254 0.0172926 0.00552015 1.65883e-07 1.32444e-05 
0 0 0 -0.00369179 0.152624 0.0588975 0 884 529 7.22919e-05 -0.0383388 0.119915 5.07257e-07 4.0782e-05 
0 0 0 -1.60443 0.558908 0.803117 0 884 1901 -0.218963 -0.0431614 0.358367 1.24199e-06 0.000101405 
0 0 0 -0.0720404 0.211662 0.0629493 0 884 1308 0.00180783 -0.00450505 0.0574983 3.25384e-07 2.60631e-05 
0 0 0 0.513569 -0.267951 0.108499 0 884 476 7.67302e-05 0.00109142 -0.00218822 7.73002e-08 6.16084e-06 
0 0 0 -0.03141 -0.422563 0.0704186 0 884 1216 0.00886882 0.00430184 0.0180092 1.75015e-07 1.39761e-05 
0 0 0 0.0302432 0.250463 0.126208 0 884 1941 -0.000124531 -0.000601259 0.00122804 1.15207e-07 9.18899e-06 
0 0 0 -0.423644 0.571372 0.299187 0 854 704 0.0866953 -0.0424665 0.0086957 2.23213e-07 1.78423e-05 
0 0 0 -1.10582 -0.24663 -0.736686 0 854 2108 0.694418 0.303063 -0.119517 1.22898e-06 0.000100315 
0 0 0 0.123859 0.0705161 0.344568 0 854 983 0.04011 0.00284531 0.00474221 2.91644e-07 2.33445e-05 
0 0 0 0.118625 0.0140183 0.163983 0 854 1765 0.0144873 -0.00149178 0.00537451 1.83668e-07 1.46696e-05 
0 0 0 0.180688 0.195038 -0.162382 0 854 1958 -0.0108991 -9.54769e-05 -0.000109466 2.71258e-08 2.15977e-06 
0 0 0 0.000167795 -0.0553377 0.0719302 0 854 932 0.00278184 0.000864781 -0.00108941 3.99213e-08 3.17936e-06 
0 0 0 0.284643 -0.0021839 0.168039 0 854 197 0.00385717 0.0278453 0.00950988 2.23178e-07 1.78395e-05 
0 0 0 0.0553132 0.477327 -0.0984559 0 854 415 0.00328039 -0.0142908 0.0258154 8.25564e-08 6.58046e-06 
0 0 0 0.000930477 0.0950816 0.254448 0 854 2113 0.00535372 -0.00172343 -0.00204826 6.21551e-08 4.95228e-06 
0 0 0 -0.00681373 -0.0791863 0.152473 0 854 1872 0.00109685 0.00308971 -0.0052751 1.5675e-08 1.24777e-06 
0 0 0 0.0300284 0.0526815 0.387642 0 854 1596 0.00766723 -0.000299611 -0.00382189 9.64512e-08 7.69013e-06 
0 0 0 0.0154698 0.0459364 0.227237 0 854 1665 0.0056456 -0.00350941 -0.0129012 7.36922e-08 5.87286e-06 
0 0 0 0.0203632 -0.052252 0.183942 0 854 1064 -0.000610435 0.00025101 -0.000173641 1.40033e-08 1.11466e-06 
0 0 0 0.00857302 0.0513748 0.417716 0 854 1140 -4.85024e-05 0.0011599 -0.0217148 1.14331e-08 9.10025e-07 
0 0 0 0.00287215 -0.0295109 0.101236 0 854 867 0.000631832 -0.00204885 -0.00111877 1.74826e-08 1.39171e-06 
0 0 0 0.134193 -0.145659 0.0258295 0 853 210 -0.0145845 -0.10293 -0.0022409 4.95089e-07 3.97938e-05 
0 0 0 -0.101964 0.117411 0.224399 0 853 1418 0.00667288 -0.028632 -0.0126657 1.30825e-07 1.04379e-05 
0 0 0 -0.253413 -0.247137 -0.17971 0 853 795 0.0119185 -0.13055 -0.0212487 6.04939e-07 4.87332e-05 
0 0 0 -0.134693 0.205908 0.104556 0 853 489 0.0229086 -0.0875619 -0.00642636 3.11392e-07 2.49353e-05 
0 0 0 -0.17883 -0.0445439 0.102937 0 853 1973 0.00944656 -0.0244906 -0.00779165 1.91538e-07 1.53006e-05 
0 0 0 0.116845 0.249394 0.00661166 0 852 1417 0.0086387 -0.039359 -0.0336975 1.19145e-07 9.50381e-06 
0 0 0 0.0154698 0.0459364 0.227237 0 852 1665 0.00229831 -0.099009 -0.00391845 4.09236e-07 3.28355e-05 
0 0 0 0.182406 -0.023368 0.28774 0 852 2212 -0.00493832 -0.0100158 0.000831879 1.07006e-07 8.53343e-06 
0 0 0 -0.261941 -0.0176332 0.259099 0 852 793 0.000788853 -0.0525625 -0.00314509 2.88719e-07 2.31091e-05 
0 0 0 0.0442703 -0.00485619 0.16321 0 852 1864 -0.000693006 -0.00198013 -0.000707086 3.54513e-08 2.82311e-06 
0 0 0 -0.157967 -0.0125709 0.226166 0 852 1895 0.00262783 -0.00819259 -0.00736168 8.92846e-08 7.11771e-06 
0 0 0 0.0240844 0.0136678 0.161562 0 852 1779 -0.000103585 -0.0136052 -0.0068018 1.06935e-07 8.52779e-06 
0 0 0 -0.0875854 0.170336 0.208248 0 852 886 -0.0010283 -0.020379 -0.0101375 6.47219e-08 5.15705e-06 
0 0 0 0.0249075 -0.027846 -0.0199337 0 855 593 0.00488581 0.00050106 0.00025817 7.42533e-08 5.91764e-06 
0 0 0 0.00145045 -0.139935 0.00086692 0 894 380 -0.000344499 0.000707432 -0.000254675 7.15472e-09 5.69435e-07 
0 0 0 0.00288306 -0.0104759 0.0200679 0 894 672 1.70544e-05 -0.00302817 -0.00287838 2.64123e-08 2.10293e-06 
0 0 0 -0.0042558 -0.050288 -0.00129785 0 894 882 -0.000504606 -5.98493e-05 -0.0032725 4.52617e-08 3.60506e-06 
0 0 0 0.0227623 -0.119093 -0.00937852 0 894 1131 -9.92071e-05 -2.28744e-05 -0.000667805 2.39089e-08 1.90352e-06 
0 0 0 -0.0149715 -0.18929 -0.0057293 0 894 1879 -0.000251767 0.000238413 -0.00042709 1.7042e-08 1.35662e-06 
0 0 0 -0.0231255 -0.100456 0.00178286 0 894 1322 0.000338994 2.7904e-05 -0.00106779 1.95147e-08 1.55354e-06 
0 0 0 0.0751524 -0.197533 -0.00824287 0 894 1994 -0.000268171 0.000188981 -0.000656139 2.27316e-08 1.80974e-06 
0 0 0 -0.00569911 -0.00785681 0.0951721 0 852 1118 0.0030761 -8.3354e-05 -0.00715042 1.32975e-08 1.05846e-06 
0 0 0 0.00145045 -0.139935 0.00086692 0 855 380 7.46446e-05 3.71883e-05 -3.15935e-06 5.47249e-09 4.35535e-07 
0 0 0 0.00149412 -0.165788 0.0245156 0 855 802 0.00150599 -4.80497e-05 -0.00014614 2.76418e-08 2.20087e-06 
0 0 0 -0.0274403 -0.0748033 0.0724887 0 855 1443 0.00370531 0.00161081 -0.000915222 2.94786e-08 2.34721e-06 
0 0 0 0.00501826 -0.13267 0.0853208 0 855 701 0.00114689 0.000495303 -0.000288986 2.62593e-08 2.09074e-06 
0 0 0 0.00408674 -0.0684158 -0.0152324 0 855 17 -5.27321e-05 2.39311e-05 -1.10666e-05 5.28723e-09 4.20789e-07 
0 0 0 0.00170587 -0.102021 0.100118 0 855 1326 0.00532221 0.0012008 -0.000401571 6.24173e-08 4.97319e-06 
0 0 0 0.00487206 -0.0760119 -0.00527141 0 855 762 0.000606839 0.000274349 0.000129598 1.89601e-08 1.50937e-06 
0 0 0 -0.0001254 0.00099908 0.0432423 0 854 546 0.00377442 0.000561182 -0.00180184 4.86834e-08 3.87786e-06 
0 0 0 -0.00645064 -0.0159635 0.0927322 0 854 1624 0.00043859 0.000916162 -0.000639161 5.44809e-09 4.33592e-07 
0 0 0 0.00292024 -0.0272213 0.0633153 0 854 1365 0.000680308 0.000502456 9.31364e-05 1.82428e-08 1.45225e-06 
0 0 0 -10.9019 -29.9585 41.8627 0 930 444 -0.358944 1.47383 0.74446 1.87723e-06 0.000155424 
0 71.1371 25.9576 -2.26513e-05 71.4527 25.0828 1 92 303 -0.008472 0.00147988 -0.00451689 8.17976e-08 6.51988e-06 
0 71.1182 26.0586 -2.26513e-05 71.4527 25.0828 1 91 303 -0.00947973 0.00306798 -0.00392492 9.06673e-08 7.22814e-06 
0 70.5295 27.6946 -2.26513e-05 71.4527 25.0828 1 63 303 -0.0902663 0.113499 -0.0375583 5.13131e-07 4.12592e-05 
0 70.211 28.7049 -2.26513e-05 71.4527 25.0828 1 85 303 -0.0117148 0.0398779 -0.00606668 2.24858e-07 1.79744e-05 
0 70.2635 28.634 -2.26513e-05 71.4527 25.0828 1 86 303 -0.00740345 0.0192736 -0.00333116 1.41488e-07 1.12911e-05 
0 81.4602 25.6246 -3.10181e-07 78.0792 26.7027 1 137 753 -0.00227808 0.00113157 -0.00645763 6.79366e-08 5.41355e-06 
0 81.4502 25.6404 -3.10181e-07 78.0792 26.7027 1 138 753 -0.0022659 0.00113164 -0.00631675 6.70545e-08 5.34316e-06 
0 81.8282 25.8725 -3.10181e-07 78.0792 26.7027 1 134 753 0.0127808 0.0404544 -0.277624 8.10821e-07 6.55989e-05 
0 81.7677 25.8467 -3.10181e-07 78.0792 26.7027 1 136 753 0.0167938 -0.350978 -0.434685 1.23646e-06 0.000100942 
0 81.357 27.303 -3.10181e-07 78.0792 26.7027 1 2650 753 0.084827 0.141788 -0.18622 7.28909e-07 5.88712e-05 
0 80.953 27.6262 -3.10181e-07 78.0792 26.7027 1 125 753 -0.103939 0.208298 -0.322788 9.91083e-07 8.04874e-05 
0 81.8724 26.2456 -3.10181e-07 78.0792 26.7027 1 120 753 0.0447045 -0.200421 -0.339505 9.89136e-07 8.0326e-05 
0 81.2647 27.3048 -3.10181e-07 78.0792 26.7027 1 123 753 -0.053377 0.144231 -0.375729 1.00406e-06 8.15641e-05 
0 80.9165 27.8147 -3.10181e-07 78.0792 26.7027 1 2649 753 0.0925618 0.1826 -0.47641 1.17761e-06 9.60158e-05 
0 80.9674 27.6158 -3.10181e-07 78.0792 26.7027 1 124 753 -0.101187 0.2052 -0.325929 9.91475e-07 8.052e-05 
0 81.0392 28.322 -3.10181e-07 78.0792 26.7027 1 126 753 -0.0219516 0.0871289 -0.0809408 4.52997e-07 3.63792e-05 
0 80.9526 28.1759 -3.10181e-07 78.0792 26.7027 1 2647 753 0.0542243 0.154733 -0.434047 1.09542e-06 8.91577e-05 
0 81.8329 25.9415 -3.10181e-07 78.0792 26.7027 1 2707 753 0.0291709 0.0505598 -0.271258 8.01511e-07 6.4833e-05 
0 80.5747 29.7121 -3.10181e-07 78.0792 26.7027 1 2674 753 0.0156668 0.0453228 -0.0798053 3.81078e-07 3.05587e-05 
0 80.5045 29.6884 -3.10181e-07 78.0792 26.7027 1 2672 753 -0.000703106 0.13743 -0.298496 8.7444e-07 7.08403e-05 
0 80.2784 29.9137 -3.10181e-07 78.0792 26.7027 1 2673 753 -0.00264583 0.104066 -0.187447 6.60757e-07 5.32913e-05 
0 80.7486 29.5049 -3.10181e-07 78.0792 26.7027 1 2644 753 -0.00804993 0.0818631 -0.214425 6.91287e-07 5.5789e-05 
0 101.896 27.4411 -0.0653884 101.912 30.6524 1 2704 1116 -1.25313 -5.56291 -1.08659 5.30144e-06 0.00047931 
0 101.912 27.3988 -0.0653884 101.912 30.6524 1 2705 1116 -1.01164 -5.11636 -1.19852 5.05669e-06 0.000453906 
0 101.927 27.3598 -0.0653884 101.912 30.6524 1 2706 1116 -0.809823 -4.70802 -1.25933 4.82507e-06 0.000430245 
0 81.4031 27.3672 -3.10181e-07 78.0792 26.7027 1 2721 753 0.0614442 0.135952 -0.191456 7.16876e-07 5.78848e-05 
0 101.438 28.7789 -0.0653884 101.912 30.6524 1 2722 1116 3.74102 -8.41641 2.55848 6.99293e-06 0.000668054 
0 81.4962 27.6518 -3.10181e-07 78.0792 26.7027 1 2722 753 0.0261561 0.0940476 -0.118548 5.30368e-07 4.26603e-05 
0 81.3201 28.1654 -3.10181e-07 78.0792 26.7027 1 2703 753 -0.0144311 0.0544096 -0.0493876 3.29929e-07 2.64295e-05 
0 81.072 28.333 -3.10181e-07 78.0792 26.7027 1 2702 753 -0.0202258 0.0864578 -0.0800109 4.49502e-07 3.6096e-05 
0 80.8249 29.5279 -3.10181e-07 78.0792 26.7027 1 2724 753 0.00146633 0.0580322 -0.0192303 2.88488e-07 2.30904e-05 
0 80.6087 29.6739 -3.10181e-07 78.0792 26.7027 1 2726 753 0.0187043 0.0469567 -0.0759514 3.75991e-07 3.01477e-05 
0 102.277 29.3874 -0.0653884 101.912 30.6524 1 2698 1116 -15.6184 -13.3908 -5.60165 1.07076e-05 0.00123079 
0 101.819 30.7252 -0.0653884 101.912 30.6524 1 2717 1116 14.7578 38.2147 2.99774 1.2399e-05 0.00176921 
0 0 0 1.57436 20.1294 -16.7642 0 960 2295 0.0264948 -0.223164 -0.34013 1.45159e-06 0.000119058 
0 28.6576 -70.2302 -0.0101647 25.1786 -71.3986 1 493 405 0.023483 -0.010687 -0.0608976 3.01771e-07 2.41601e-05 
0 28.784 -70.1236 -0.0101647 25.1786 -71.3986 1 494 405 0.0147302 -0.00748653 -0.0529274 2.68668e-07 2.14954e-05 
0 27.8039 -70.4729 -0.0101647 25.1786 -71.3986 1 491 405 0.0652554 -0.02172 -0.0807194 4.1215e-07 3.30713e-05 
0 0 0 1.62079e-05 -1.13078e-06 6.36977e-08 0 885 23 -0.159935 -0.674435 -28.64 1.17812e-05 0.00150006 
0 0 0 -0.0687854 0.0283486 0.118754 0 885 765 -0.913953 -0.134651 -28.8213 1.17964e-05 0.00150492 
0 0 0 -1.14389e-05 4.02191e-05 -3.44027e-07 0 885 1484 0.187531 0.761581 -28.5375 1.17699e-05 0.00149648 
0 0 0 1.3027e-05 -7.11415e-06 3.35557e-07 0 885 124 -0.388488 -1.00346 -28.7337 1.17914e-05 0.00150333 
0 0 0 -8.73821e-15 2.12876e-14 3.37592e-12 0 885 1052 6.21387e-15 8.21841e-05 -28.6382 1.1781e-05 0.0015 
0 0 0 0.400555 -2.68472 1.71257 0 885 792 0.000856587 -0.00361299 -0.0913682 9.85684e-09 7.84537e-07 
0 0 0 5.68839e-12 1.73443e-11 -1.05224e-11 0 885 1441 -1.00798e-11 8.21841e-05 -28.6382 1.1781e-05 0.0015 
0 0 0 7.74826e-11 1.0395e-10 3.78119e-12 0 885 173 -1.44982e-11 8.21841e-05 -28.6382 1.1781e-05 0.0015 
0 0 0 8.5062e-11 1.36015e-10 7.56154e-11 0 885 874 -1.52672e-10 8.21841e-05 -28.6382 1.1781e-05 0.0015 
0 0 0 -1.60037e-06 -4.82342e-06 -2.38512e-08 0 885 281 1.03016 -0.260555 -28.4306 1.1758e-05 0.00149274 
0 0 0 -1.7099e-06 8.53524e-06 1.70431e-08 0 885 2235 -1.27755 0.635024 -28.8169 1.18004e-05 0.00150623 
0 0 0 -7.017e-125 1.82577e-19 1.68055e-12 0 885 1154 1.55869e-122 8.21841e-05 -28.6382 1.1781e-05 0.0015 
0 0 0 3.31027e-06 -3.71184e-06 6.80685e-09 0 885 171 -0.359249 -0.293739 -28.6675 1.17842e-05 0.00150102 
0 0 0 1.62079e-05 -1.13078e-06 6.36977e-08 0 850 23 -0.159241 -0.671482 28.6364 1.17808e-05 0.00149994 
0 0 0 -0.0687854 0.0283486 0.118754 0 850 765 -0.624888 -0.168832 28.4554 1.17654e-05 0.00149508 
0 0 0 -1.14389e-05 4.02191e-05 -3.44027e-07 0 850 1484 0.266504 1.01053 28.739 1.1792e-05 0.00150352 
0 0 0 1.3027e-05 -7.11415e-06 3.35557e-07 0 850 124 -0.292778 -0.755721 28.5428 1.17705e-05 0.00149667 
0 0 0 -8.73821e-15 2.12876e-14 3.37592e-12 0 850 1052 1.99023e-15 8.21841e-05 28.6382 1.1781e-05 0.0015 
0 0 0 5.68839e-12 1.73443e-11 -1.05224e-11 0 850 1441 1.17848e-11 8.2184e-05 28.6382 1.1781e-05 0.0015 
0 0 0 7.74826e-11 1.0395e-10 3.78119e-12 0 850 173 -1.01506e-11 8.2184e-05 28.6382 1.1781e-05 0.0015 
0 0 0 8.5062e-11 1.36015e-10 7.56154e-11 0 850 874 1.84855e-10 8.2184e-05 28.6382 1.1781e-05 0.0015 
0 0 0 -1.60037e-06 -4.82342e-06 -2.38512e-08 0 850 281 1.56916 -0.396932 28.8462 1.18036e-05 0.00150726 
0 0 0 -1.7099e-06 8.53524e-06 1.70431e-08 0 850 2235 -0.672388 0.553904 28.4599 1.17613e-05 0.00149377 
0 0 0 -7.017e-125 1.82577e-19 1.68055e-12 0 850 1154 -1.53821e-122 8.21841e-05 28.6382 1.1781e-05 0.0015 
0 0 0 3.31027e-06 -3.71184e-06 6.80685e-09 0 850 171 -0.290136 -0.237209 28.6089 1.17778e-05 0.00149898 
0 26.1166 -81.8126 0.0170743 26.758 -78.0524 1 1861 1181 0.0164866 -0.121288 -0.0368328 4.64791e-07 3.73354e-05 
0 26.8767 -81.9424 0.0170743 26.758 -78.0524 1 1874 1181 -0.0218121 -0.181281 -0.096686 6.38746e-07 5.14927e-05 
0 26.9646 -81.9319 0.0170743 26.758 -78.0524 1 1873 1181 -0.0305482 -0.185922 -0.104695 6.56873e-07 5.29738e-05 
0 27.6664 -81.2813 0.0170743 26.758 -78.0524 1 1883 1181 0.0231233 -0.0529639 -0.0466408 3.2634e-07 2.61401e-05 
0 27.9264 -81.3972 0.0170743 26.758 -78.0524 1 1889 1181 0.00869516 -0.0232988 -0.0233511 1.93118e-07 1.54273e-05 
0 28.0566 -81.4552 0.0170743 26.758 -78.0524 1 1890 1181 0.000493312 -0.00142827 -0.00152487 2.61751e-08 2.08403e-06 
0 26.2581 -81.8599 0.0170743 26.758 -78.0524 1 530 1181 -0.172188 -0.321007 0.107518 9.53288e-07 7.73563e-05 
0 25.9192 -81.8545 0.0170743 26.758 -78.0524 1 529 1181 0.000721367 -0.161892 -0.040196 5.54176e-07 4.45972e-05 
0 28.9297 -80.933 0.0170743 26.758 -78.0524 1 1826 1181 -0.0180296 -0.322968 -0.139658 9.13766e-07 7.40874e-05 
0 29.3755 -80.7854 0.0170743 26.758 -78.0524 1 1828 1181 -0.00281258 -0.348207 -0.119877 9.40034e-07 7.62594e-05 
0 29.458 -80.7838 0.0170743 26.758 -78.0524 1 1831 1181 0.00405845 -0.293417 -0.0975439 8.37699e-07 6.78116e-05 
0 29.7074 -80.5895 0.0170743 26.758 -78.0524 1 1830 1181 0.0560792 -0.0839803 -0.108845 5.1529e-07 4.14347e-05 
0 28.9154 -80.9317 0.0170743 26.758 -78.0524 1 1842 1181 -0.017484 -0.321557 -0.141839 9.1304e-07 7.40274e-05 
0 29.3719 -80.7802 0.0170743 26.758 -78.0524 1 1827 1181 -0.00330447 -0.348228 -0.121621 9.41086e-07 7.63465e-05 
0 27.5014 -81.7282 0.0170743 26.758 -78.0524 1 1871 1181 -0.0927117 -0.173444 -0.136814 7.0477e-07 5.6893e-05 
0 27.8206 -81.5361 0.0170743 26.758 -78.0524 1 1870 1181 -0.01905 -0.0472211 -0.0464918 3.03569e-07 2.43049e-05 
0 27.8878 -81.4104 0.0170743 26.758 -78.0524 1 1869 1181 -0.0462848 -0.0903306 -0.0965445 4.91335e-07 3.9489e-05 
0 28.0431 -81.1201 0.0170743 26.758 -78.0524 1 1868 1181 -0.10625 -0.116791 -0.155401 6.69497e-07 5.4006e-05 
0 28.5143 -81.4006 0.0170743 26.758 -78.0524 1 1892 1181 0.0198794 -0.0870874 -0.120163 5.18396e-07 4.16871e-05 
0 29.0116 -81.2208 0.0170743 26.758 -78.0524 1 1893 1181 0.0666585 -0.102118 -0.11808 5.71275e-07 4.59894e-05 
0 29.5929 -80.5888 0.0170743 26.758 -78.0524 1 1885 1181 0.027709 -0.0722091 -0.135219 5.31039e-07 4.27149e-05 
0 26.3424 -81.7895 0.0170743 26.758 -78.0524 1 526 1181 0.111487 -0.448438 0.160237 1.12812e-06 9.18834e-05 
0 26.3436 -81.8138 0.0170743 26.758 -78.0524 1 527 1181 0.0809616 -0.422444 0.211599 1.11183e-06 9.05256e-05 
0 26.7705 -81.6361 0.0170743 26.758 -78.0524 1 541 1181 0.0288115 -0.514674 -0.0786355 1.19169e-06 9.71936e-05 
0 0 0 0.29907 0.0404651 0.260459 0 853 2081 0.00185013 -0.010588 -0.00583423 7.36135e-08 5.86658e-06 
0 0 0 0.288102 0.156199 0.224325 0 853 818 0.0237244 -0.137843 -0.00717775 4.73778e-07 3.80642e-05 
0 0 0 0.0366451 0.00374704 0.135891 0 853 338 -0.00261408 -0.034734 1.74365e-05 2.11693e-07 1.69175e-05 
0 0 0 0.174094 0.0370235 0.0936935 0 853 1354 -0.0229002 -0.0843345 -0.0342062 3.69316e-07 2.96084e-05 
0 0 0 0.270978 -0.281548 0.130033 0 853 2004 -0.0114303 -0.0536637 0.0280184 4.06916e-07 3.26478e-05 
0 0 0 0.116039 -0.000671811 -0.112448 0 853 1257 0.000661401 -0.0231171 -0.00270555 1.63224e-07 1.30314e-05 
0 0 0 0.159561 0.000837428 0.254598 0 853 2262 0.00305154 -0.0156375 -0.000908153 1.25158e-07 9.98465e-06 
0 0 0 -0.0522893 -0.0379937 0.235145 0 853 1823 0.000578505 -0.00582542 -0.00285468 8.92551e-08 7.11535e-06 
0 0 0 -0.0116805 -0.0155328 0.192589 0 853 407 0.00115192 -0.00287273 -0.000858029 5.18036e-08 4.12665e-06 
0 0 0 0.03384 -0.012845 0.147641 0 853 768 -0.00156913 -0.00213781 0.00248007 4.30753e-08 3.43077e-06 
0 0 0 0.106753 0.0310791 -0.078445 0 853 2028 -0.00221023 -0.0340513 0.0016803 1.95954e-07 1.56548e-05 
0 0 0 0.0287442 0.016145 0.225087 0 853 1424 -0.00381342 -0.0380476 -0.00875499 2.1927e-07 1.75258e-05 
0 0 0 0.0225872 -0.0580847 0.142895 0 853 2157 -0.00166896 0.0013417 0.000531902 4.33618e-08 3.45361e-06 
0 0 0 0.0408424 0.032223 0.162427 0 853 663 0.00342296 -0.0190369 -0.0088817 1.26318e-07 1.00775e-05 
0 0 0 0.125482 0.000125375 -0.0407491 0 853 1965 -0.0017099 -0.010338 0.00125226 9.531e-08 7.59896e-06 
0 0 0 0.0985337 0.0823671 0.204064 0 853 2214 -0.00868603 -0.0231339 0.00942452 1.21451e-07 9.68821e-06 
0 0 0 0.0469554 0.0288354 0.112094 0 853 1273 0.000511837 -0.0197072 -0.00789757 1.31506e-07 1.04924e-05 
0 0 0 0.0146807 0.0458425 -0.00715403 0 853 1992 -0.00190299 -0.0397857 -0.000656119 2.12467e-07 1.69796e-05 
0 0 0 0.10515 0.0223502 0.090701 0 853 1491 0.00197144 -0.072923 -0.0124077 3.39765e-07 2.72229e-05 
0 0 0 -0.0036305 0.00824097 0.104782 0 853 2092 0.000314964 -0.00141792 0.000635153 1.87583e-08 1.4933e-06 
0 0 0 0.0230625 -0.0197151 0.172355 0 853 780 0.00144525 -0.00248646 0.00143638 5.13823e-08 4.09306e-06 
0 0 0 0.0257026 0.0219859 0.0901199 0 853 299 0.00464748 -0.00946754 -0.000899739 7.70278e-08 6.1391e-06 
0 0 0 -0.00360366 0.0149841 0.179568 0 853 750 0.00109094 -0.00537566 -0.00245648 5.20264e-08 4.14442e-06 
0 0 0 0.0147983 0.00375572 0.153522 0 853 875 -0.000137738 -0.000484368 -0.000199202 8.79837e-09 7.00275e-07 
0 0 0 -0.00239339 0.0218687 0.103135 0 853 1674 0.00160851 -0.00728535 -0.00174945 6.21289e-08 4.95019e-06 
0 0 0 0.0119577 0.00893379 0.0551344 0 853 1801 -0.00289468 -0.00697563 0.00194569 6.7873e-08 5.40847e-06 
0 0 0 2.59505e-18 -1.99308e-18 -3.93765e-12 0 884 331 5.34601e-18 8.21841e-05 -28.6382 1.1781e-05 0.0015 
0 0 0 -0.0975632 0.179451 -0.310804 0 884 1301 -0.00962108 0.0300488 0.0602353 1.76066e-07 1.40603e-05 
0 0 0 -0.0765133 -0.0337233 0.00719205 0 884 513 0.000323665 9.11639e-05 0.000672517 2.2009e-08 1.75219e-06 
0 0 0 0.144106 -0.144448 0.0214626 0 884 1799 -0.00296882 0.000426748 0.00599866 8.00146e-08 6.37753e-06 
0 0 0 0.303034 0.137339 0.123715 0 884 2289 -0.0174396 -0.0537535 0.00125004 1.13725e-07 9.07055e-06 
0 0 0 0.179481 -0.159457 0.0368247 0 884 406 -0.000864349 -0.00293215 0.0182433 1.58539e-07 1.26562e-05 
0 0 0 0.138593 -0.0503507 0.026551 0 884 1891 -0.0052826 0.00462667 0.0195266 1.59415e-07 1.27263e-05 
0 0 0 0.0523222 -0.0825694 -0.0256432 0 884 955 -0.00846359 -0.00520346 0.0198704 1.33988e-07 1.0691e-05 
0 0 0 0.0146807 0.0458425 -0.00715403 0 884 1992 0.00337655 -0.00457877 0.0113783 9.75823e-08 7.78049e-06 
0 0 0 0.0375544 0.0669092 0.0169651 0 884 1679 -0.00046376 0.000469598 0.00882629 9.59572e-08 7.65066e-06 
0 0 0 0.116966 -0.0927971 -0.000248784 0 884 1855 -0.00137111 0.00273824 0.00612467 6.71622e-08 5.35176e-06 
0 0 0 1.01121 0.702441 1.39601 0 885 1806 0.0107817 -0.0254183 -0.0808646 4.76308e-07 3.82695e-05 
0 0 0 -0.189386 0.151626 -0.115204 0 885 1991 -0.00354554 -0.00636643 0.0145743 5.83966e-08 4.65247e-06 
0 0 0 2.59505e-18 -1.99308e-18 -3.93765e-12 0 850 331 -5.59914e-18 8.21841e-05 28.6382 1.1781e-05 0.0015 
0 0 0 -0.00798389 -0.0355593 0.172061 0 852 2029 -1.83497e-07 1.36704e-06 -6.58429e-07 3.88425e-08 3.09338e-06 
0 0 0 0.0717158 -0.00089013 0.131894 0 852 1670 0.00162651 -0.0042628 -0.000168671 5.34858e-08 4.26081e-06 
0 0 0 0.0793271 -0.0162374 -0.00164571 0 894 2057 0.00039717 4.87061e-05 -0.00080029 1.88185e-08 1.49809e-06 
0 0 0 0.0254027 -0.256874 -0.0137498 0 894 233 9.57294e-05 6.98277e-05 0.000236981 1.37246e-08 1.09247e-06 
0 0 0 -0.00911284 -0.048261 -0.00757583 0 894 358 -0.00140071 0.000943723 -0.000486636 1.97129e-08 1.56932e-06 
0 0 0 0.103173 -0.0634568 -0.0809138 0 894 2045 0.00166262 0.00107135 0.00282217 4.71418e-08 3.75495e-06 
0 0 0 -0.0533898 -0.10516 -0.00140027 0 894 1585 0.00190594 -0.000975008 -0.0107703 9.88249e-08 7.87976e-06 
0 0 0 -0.0118102 -0.171721 -0.000240236 0 894 1908 0.00019318 -0.000118949 -0.000205203 7.2736e-09 5.78899e-07 
0 0 0 0.0944505 -0.0717967 -0.00358826 0 894 1820 -4.23771e-05 2.60775e-05 9.95159e-05 1.62412e-09 1.29248e-07 
0 0 0 0.0287386 -0.0629876 0.00463386 0 894 1790 -0.00136079 0.000296693 -0.00494002 5.52981e-08 4.40533e-06 
0 0 0 -0.0267928 0.0177791 -0.0857531 0 894 1760 0.000944384 -0.0024838 -0.00311612 1.01471e-07 8.09118e-06 
0 0 0 0.040695 -0.074892 -0.00255446 0 894 1294 -7.08101e-06 5.99889e-05 -0.000282392 1.13654e-08 9.04631e-07 
0 0 0 1.10392e-73 1.21785e-19 5.6132e-12 0 894 272 4.37288e-73 8.21841e-05 28.6382 1.1781e-05 0.0015 
0 0 0 -0.0508753 -0.00305522 0.126487 0 852 137 1.43193e-05 -0.000123688 -6.01637e-05 8.66005e-09 6.89264e-07 
0 0 0 0.0286999 0.00232944 0.168941 0 852 1452 -0.000448187 -0.00380994 -0.00877874 4.74759e-08 3.78159e-06 
0 0 0 -0.0641843 -0.00157049 0.0724292 0 852 1798 0.00731261 -0.00211867 -0.00315467 3.43859e-08 2.73822e-06 
0 0 0 1.10392e-73 1.21785e-19 5.6132e-12 0 849 272 -4.03994e-73 8.21841e-05 -28.6382 1.1781e-05 0.0015 
0 0 0 -0.00335997 -0.132809 -0.00432726 0 895 2139 4.06091e-05 0.000762476 -0.00717459 7.74673e-08 6.17419e-06 
0 0 0 -0.0570768 -0.0781853 -0.00594733 0 895 1809 0.000960882 5.95173e-05 -0.00192545 3.57197e-08 2.8445e-06 
0 0 0 -0.0706871 -0.149454 0.0117226 0 895 1280 0.000484719 0.000245604 -0.00108678 1.15373e-08 9.18323e-07 
0 0 0 -0.0327389 -0.13411 0.000898129 0 895 2137 0.000923123 0.000648789 -0.00217465 3.31011e-08 2.63584e-06 
0 0 0 -0.0155081 -0.177199 -0.00488269 0 895 580 0.00209874 0.000666901 -0.00579427 6.80023e-08 5.41879e-06 
0 0 0 -0.0294504 -0.0857832 -0.0337998 0 895 186 -6.83589e-05 -0.000100011 0.000242281 3.43619e-08 2.73631e-06 
0 0 0 0.00845758 -0.159782 0.00338485 0 895 1410 -0.00239082 0.00717414 -0.00107734 1.82861e-08 1.45569e-06 
0 0 0 -0.0363227 -0.0984442 0.00131057 0 895 1860 0.00022254 0.000533865 -0.00115678 2.10827e-08 1.67841e-06 
0 0 0 0.0333847 -0.101355 -0.00182937 0 895 2129 0.000115022 4.83229e-05 -0.00038438 1.24842e-08 9.93705e-07 
0 0 0 0.0494451 -0.117477 0.00640983 0 895 1086 -0.000425128 0.000569683 -0.00142165 2.02709e-08 1.61376e-06 
0 0 0 0.00276866 0.0111909 0.170377 0 853 1911 -0.00104768 -0.00199491 -0.00428572 2.33715e-08 1.86071e-06 
0 0 0 24.9716 -52.2825 43.4059 0 933 1520 -7.18355 18.315 1.59413 6.83444e-06 0.000649249 
0 0 0 -2.64765 5.99223 24.3804 0 939 2244 -0.00262705 0.256402 -0.00261527 1.2486e-06 0.00010196 
0 0 0 -4.40623e-07 2.35797e-12 3.12252e-12 0 961 428 -7.30842e-16 9.45454 12.5197 9.45155e-06 0.00100427 
0 0 0 -4.40623e-07 2.35797e-12 3.12252e-12 0 753 428 7.63739e-16 -9.45437 -12.5197 9.45152e-06 0.00100427 
0 0 0 -1.01766 -19.1018 -41.6308 0 906 2328 -0.0141834 -1.35939 0.454299 3.05359e-06 0.000259882 
0 0 0 -5.95742 -3.83781 -36.5911 0 903 914 -0.0877975 -0.571146 0.0279147 5.30441e-07 4.26662e-05 
0 0 0 -0.00041593 -7.72364e-05 2.08291e-05 0 963 716 -0.822382 4.74178 13.4061 8.79105e-06 0.00090377 
0 0 0 -0.00041593 -7.72364e-05 2.08291e-05 0 751 716 0.634467 -5.17521 -9.01977 7.57004e-06 0.000738897 
0 0 0 -0.00041593 -7.72364e-05 2.08291e-05 0 752 716 0.185013 0.434253 -4.38666 4.71681e-06 0.000419307 
0 0 0 -0.0181548 -0.00913866 -0.0884662 0 889 1135 -0.0154634 -0.00107628 0.00333101 1.34511e-07 1.07328e-05 
0 0 0 0.00675786 -0.0817342 -0.0216501 0 888 1831 -0.00250118 -0.000195861 0.00123516 3.21049e-08 2.55646e-06 
0 0 0 -0.0491767 0.0469548 0.00738301 0 888 1442 -0.00401869 -0.000503999 -0.00137368 8.3849e-08 6.68366e-06 
0 0 0 0.00802477 -0.0127706 0.0832305 0 888 1747 -0.0190426 -0.00593607 -0.0027988 1.38993e-07 1.10915e-05 
0 0 0 0.0385253 -0.0397242 0.1818 0 888 1971 -0.00666653 0.00203119 0.00248843 4.73574e-08 3.77214e-06 
0 0 0 -0.00126026 -0.0205732 0.0529846 0 888 1659 -0.00404087 0.00466868 -0.00308209 5.18928e-08 4.13377e-06 
0 0 0 0.0235425 -0.0594125 0.103434 0 888 1489 -0.00787115 0.00374906 -0.00119722 6.52804e-08 5.20161e-06 
0 0 0 0.00729254 -0.00234683 0.212566 0 888 1898 -0.00181373 -1.08243e-05 -0.00213885 2.42749e-08 1.93267e-06 
0 0 0 -0.0131035 -0.00693382 0.0312735 0 888 892 -0.019549 -5.54799e-05 0.00221405 1.5253e-07 1.2175e-05 
0 0 0 -0.0156723 0.0386235 0.140548 0 888 1188 -0.0142303 0.000992214 -0.00027124 1.26583e-07 1.00987e-05 
0 0 0 0.000644175 -0.0319367 0.118246 0 888 25 -0.00183516 0.000116015 -0.000910219 2.96669e-08 2.36221e-06 
0 0 0 0.000384227 -0.0576888 0.141948 0 888 1818 -0.0127941 0.000607328 -0.000319247 1.097e-07 8.74878e-06 
0 0 0 0.00144603 0.0435296 0.04525 0 888 1769 -0.0261853 -0.00582622 6.53695e-05 1.76229e-07 1.40734e-05 
0 0 0 -0.00224918 0.019711 0.115542 0 888 2051 -0.00383622 0.000105772 -0.00191519 5.08418e-08 4.04996e-06 
0 0 0 0.0907628 0.125785 0.113599 0 888 825 -0.00930412 -0.00381809 -0.00807358 3.73025e-08 2.97065e-06 
0 0 0 -0.00342524 -0.0197931 0.115972 0 888 1746 -0.00532082 -3.92091e-05 -0.00266012 6.35222e-08 5.06134e-06 
0 0 0 0.0156841 0.0220754 0.0467396 0 888 378 -0.00148681 -0.00243298 -0.00226437 1.38719e-08 1.1042e-06 
0 0 0 -0.01028 -0.00182566 0.084855 0 888 1781 -0.00939405 0.000588174 -0.00466005 9.55534e-08 7.61841e-06 
0 0 0 -0.00342524 -0.0197931 0.115972 0 853 1746 0.00185135 -0.000642506 0.00264867 3.27224e-08 2.60566e-06 
0 0 0 0.0156841 0.0220754 0.0467396 0 853 378 0.000608088 -0.00715302 0.00106229 6.1045e-08 4.86372e-06 
0 0 0 -0.0212679 0.221256 0.0747437 0 890 1881 -0.000223716 0.00124847 0.00113052 2.88144e-08 2.29429e-06 
0 0 0 -0.0722527 0.203762 -0.046465 0 886 2102 -0.000279157 -0.00012277 6.64048e-05 7.08766e-08 5.64816e-06 
0 0 0 -0.00866219 -0.121399 -0.00666154 0 891 1026 -3.66049e-05 -1.48086e-05 1.07558e-05 1.32922e-08 1.05804e-06 
0 0 0 -0.0110191 -0.0837921 -0.039677 0 891 2032 -0.000769444 0.000482843 -0.000108697 2.66822e-08 2.12443e-06 
0 0 0 -0.00898437 -0.0705132 -0.00607907 0 891 98 0.00019857 7.37738e-05 6.6445e-05 8.23006e-09 6.55035e-07 
0 0 0 -0.00513944 -0.0763812 0.0259301 0 891 1033 7.37232e-06 5.28185e-06 1.67091e-05 8.08726e-09 6.43668e-07 
0 0 0 -0.00078491 -0.148615 0.0233893 0 887 1380 -9.55184e-05 4.66659e-05 -1.01606e-05 5.20277e-09 4.14066e-07 
0 0 0 -0.000823462 -0.0731922 0.0201464 0 887 301 -0.000808233 -0.000249863 0.0010973 1.81994e-08 1.44879e-06 
0 0 0 0.000106523 -0.117245 -0.094971 0 893 1184 -0.000209141 6.59753e-05 8.11309e-05 6.97538e-09 5.5516e-07 
0 0 0 -0.0101757 -0.0646703 0.000291888 0 893 1178 -0.0060778 0.0011594 -0.000585139 7.34294e-08 5.85189e-06 
0 0 0 0.133688 -0.134409 0.0291973 0 892 2096 -0.0147574 0.00677202 0.00292996 5.05409e-08 4.02597e-06 
0 0 0 -0.00017151 -0.0842881 0.0341797 0 892 1814 -0.0011098 0.000666782 -0.000598193 2.17213e-08 1.72927e-06 
0 0 0 -0.00609597 -0.0887102 -0.00711421 0 892 1494 -0.00156923 0.000146099 0.000183012 3.20263e-08 2.5502e-06 
0 0 0 -0.0101757 -0.0646703 0.000291888 0 895 1178 -0.000623019 0.00165072 -0.00658707 7.04795e-08 5.61647e-06 
0 0 0 -0.00609597 -0.0887102 -0.00711421 0 895 1494 0.00119419 0.000206835 -0.000580701 2.06501e-08 1.64396e-06 
0 0 0 -2.51081e-05 -0.0381037 0.045397 0 888 866 -1.2671e-05 0.000233031 -6.25833e-05 1.13915e-09 9.06529e-08 
0 0 0 -0.00475164 0.0277583 0.0118059 0 888 468 -0.000348608 -7.41847e-05 2.01053e-05 1.4799e-08 1.17802e-06 
0 0 0 -0.000444889 0.000104223 0.0776826 0 888 1358 -0.000241465 -1.14288e-05 -0.000120191 8.29171e-09 6.59942e-07 
0 0 0 1.08874 0.165839 19.2978 0 383 39 -0.0231994 0.240313 0.0294253 1.09268e-06 8.89298e-05 
0 0 0 2.94187 -4.30316 17.5167 0 381 35 0.0344889 0.465192 0.0712505 1.03569e-06 8.41892e-05 
0 0 0 -0.356782 -6.83952 34.291 0 381 2211 0.0373311 0.931107 0.139546 1.99361e-06 0.000165493 
0 0 0 0.701239 -23.5093 28.2421 0 375 376 -0.0150441 0.651357 0.539919 1.99676e-06 0.000165766 
0 0 0 -1.41386 15.0493 14.5851 0 393 357 -0.00168448 0.430429 -0.508673 1.45562e-06 0.000119398 
0 0 0 1.24116 28.0894 23.7598 0 393 1657 0.0065724 -0.0335231 0.224455 5.68358e-07 4.57518e-05 
0 0 0 11.9825 -43.8637 35.8948 0 373 2339 -1.99075 2.9776 2.87767 4.69871e-06 0.000417485 