ITEM: TIMESTEP
18800000
ITEM: NUMBER OF ENTRIES
524
ITEM: BOX BOUNDS ff ff ff
-0.01 0.45
-0.15 0.15
-0.08 0.1
ITEM: ENTRIES c_pwc[1] c_pwc[2] c_pwc[3] c_pwc[4] c_pwc[5] c_pwc[6] c_pwc[7] c_pwc[8] c_pwc[9] c_pwc[10] c_pwc[11] c_pwc[12] c_pwc[13] c_pwc[14] 
0 0 0 -0.0658417 -6.99701 15.9316 0 879 1698 0.216653 0.0496613 -0.0962722 6.93477e-07 5.59682e-05 
0 0 0 0.487371 -14.044 12.8378 0 928 1719 -0.0121334 0.501944 0.43153 1.00839e-06 8.19231e-05 
0 0 0 0.584553 -17.0162 7.66797 0 924 2162 0.0465696 0.329919 0.599141 1.31741e-06 0.000107738 
0 0 0 -16.8839 24.9124 16.6978 0 946 1827 -0.0394442 -0.0385349 0.171159 2.35156e-07 1.88015e-05 
0 0 0 2.11692 15.0376 0.593921 0 954 1578 0.164082 -0.00113608 -0.202462 1.0218e-07 8.14782e-06 
0 0 0 2.22525e-308 -1.21775e-19 -1.11877e-12 0 850 393 1.77586e-305 8.21841e-05 28.6382 1.1781e-05 0.0015 
0 0 0 1.45232e-64 -3.04373e-19 2.80425e-12 0 850 1145 1.0381e-63 8.21841e-05 28.6382 1.1781e-05 0.0015 
0 0 0 2.65914e-15 1.26349e-16 1.96916e-12 0 850 465 0.917573 0.248855 28.7472 1.17929e-05 0.0015038 
0 0 0 -1.87258e-12 -2.15979e-12 -2.03326e-13 0 850 665 0.312012 0.827499 28.7535 1.17936e-05 0.00150402 
0 0 0 2.22525e-308 -1.21775e-19 -1.11877e-12 0 885 393 -1.77752e-305 8.21841e-05 -28.6382 1.1781e-05 0.0015 
0 0 0 2.65914e-15 1.26349e-16 1.96916e-12 0 885 465 0.620109 0.168206 -28.5293 1.1769e-05 0.0014962 
0 0 0 -1.87258e-12 -2.15979e-12 -2.03326e-13 0 885 665 0.235356 0.504282 -28.523 1.17683e-05 0.00149598 
0 0 0 1.45232e-64 -3.04373e-19 2.80425e-12 0 884 1145 -1.04878e-63 8.21841e-05 -28.6382 1.1781e-05 0.0015 
0 0 0 -0.0138779 0.133153 0.109902 0 855 1805 0.00698927 -0.00288144 -0.00197732 6.49106e-08 5.17211e-06 
0 0 0 -1.03023 9.99167 -12.4134 0 962 1910 -0.00624914 0.0474055 0.00914109 4.0692e-07 3.26482e-05 
0 0 0 -0.0149376 -0.00220973 0.0418936 0 894 1002 0.00269558 -0.00396162 -0.00958345 6.61903e-08 5.27421e-06 
0 0 0 0.0506185 0.121621 -0.0378648 0 894 998 -0.00745314 0.017503 -0.0380475 2.44341e-07 1.95395e-05 
0 0 0 0.0646779 -0.0367948 -0.0566409 0 894 1059 0.00569366 0.00201259 -0.0139555 1.47572e-07 1.17781e-05 
0 0 0 -0.00974991 -0.0371322 0.013925 0 884 520 0.00332812 5.70506e-05 0.00665721 7.98558e-08 6.36485e-06 
0 0 0 0.122848 -0.21087 0.127738 0 884 1335 -0.00201242 0.00723667 0.0446788 3.09775e-07 2.48049e-05 
0 0 0 0.0287086 0.138678 -0.00969152 0 884 935 0.00167319 -0.00160145 0.0185273 1.3551e-07 1.08128e-05 
0 0 0 -0.68011 0.97104 0.370991 0 854 1230 0.138243 -0.0680476 -0.0121357 2.84913e-07 2.28027e-05 
0 0 0 -0.00399627 0.214942 -1.01574 0 854 647 0.00391516 -0.000721871 0.00181962 4.72432e-08 3.76304e-06 
0 0 0 -0.124139 0.0576683 -0.0443064 0 854 1194 0.0137245 -0.00877571 -0.00507402 4.89694e-08 3.90066e-06 
0 0 0 0.0011287 -0.0228782 0.0292825 0 854 2059 -2.35322e-05 -8.95406e-06 -7.63324e-06 3.09075e-10 2.45955e-08 
0 0 0 0.00600284 0.00568027 0.0502595 0 854 1293 -8.2256e-05 8.96551e-05 9.16306e-05 7.23169e-09 5.75562e-07 
0 0 0 0.0693787 0.0470876 -0.062956 0 854 983 0.0121297 -0.00384824 0.00310006 1.45026e-07 1.15743e-05 
0 0 0 -0.00626316 -0.0352734 0.0040476 0 854 932 0.00642004 0.000270849 0.000171756 6.55271e-08 5.22129e-06 
0 0 0 -0.000772532 -0.0872409 0.017014 0 854 226 0.000997214 0.000395956 -0.000303031 1.94283e-08 1.54665e-06 
0 0 0 0.0111746 -0.0293499 0.00579904 0 854 713 0.00885738 0.000432378 -0.00268819 9.27101e-08 7.39129e-06 
0 0 0 -0.00252615 -0.0232108 0.0839402 0 854 2085 0.00179646 0.000136681 -0.000887768 2.77747e-08 2.21146e-06 
0 0 0 0.000839165 -0.03586 0.0122709 0 854 1596 0.0089183 0.00115103 0.00192837 8.69514e-08 6.93139e-06 
0 0 0 0.0041621 -0.0380848 0.171549 0 853 1592 -0.000735116 -0.0151657 -0.00754715 1.43746e-07 1.14718e-05 
0 0 0 0.0302537 -0.0204581 0.0131666 0 853 1973 -7.62541e-05 -0.000654955 0.000627566 3.34394e-08 2.66279e-06 
0 0 0 -0.0100243 -0.00424265 0.0879461 0 852 1064 0.000880429 0.000105117 -0.000449196 3.3781e-09 2.68838e-07 
0 0 0 -0.00751014 0.00938733 0.108436 0 852 1389 -5.39614e-05 -0.000485018 -0.000236429 3.9187e-09 3.11864e-07 
0 0 0 -0.0428012 -0.0164336 0.0510553 0 852 1531 0.000286921 -0.00285619 -0.00238692 5.23008e-08 4.16631e-06 
0 0 0 -0.0126964 0.00259622 0.027267 0 852 1877 -0.000341804 -0.00187633 0.000227292 2.86095e-08 2.27797e-06 
0 0 0 0.0335283 0.163537 0.187152 0 855 2185 0.00236207 -0.0354381 -0.00174774 6.02619e-08 4.80125e-06 
0 0 0 0.0644741 0.112363 -0.00584831 0 894 620 -0.00152549 -0.00340447 -0.0129153 1.13874e-07 9.0824e-06 
0 0 0 -0.0348527 0.160482 0.018063 0 894 328 -0.000382584 -0.00641157 -0.012846 1.00114e-07 7.98278e-06 
0 0 0 0.00228005 0.14026 -0.0135284 0 894 1854 3.44167e-05 8.14286e-05 0.000176806 1.46969e-08 1.16988e-06 
0 0 0 0.0129202 0.022915 0.0132799 0 894 1236 0.000227736 -0.00882642 -0.00328235 3.5116e-08 2.7964e-06 
0 0 0 -0.0163372 0.0285849 0.00385097 0 894 672 0.000579914 -7.76025e-05 -0.00117017 1.91341e-08 1.52323e-06 
0 0 0 0.01355 -0.0436952 0.0103636 0 894 677 -0.00160373 0.000515422 -0.00100692 1.1477e-08 9.13516e-07 
0 0 0 -0.0713857 -0.013778 -0.0102329 0 894 1685 0.00225069 0.00133351 -0.00523216 6.7272e-08 5.36052e-06 
0 0 0 0.00726546 -0.15435 -5.62101e-05 0 894 398 0.000704511 0.00119245 -0.00381712 4.91749e-08 3.91705e-06 
0 0 0 -0.0783665 -0.181699 -0.00349821 0 894 1879 1.12843e-05 4.55939e-05 9.39392e-05 2.05979e-09 1.63919e-07 
0 0 0 -0.0329997 -0.0742466 -0.00211069 0 894 1386 0.000511124 0.000372788 -0.00126526 2.52883e-08 2.01339e-06 
0 0 0 -0.0606109 0.00102267 -0.0109612 0 894 920 -0.000694202 0.000875255 -0.00606163 7.38114e-08 5.88238e-06 
0 0 0 0.0222964 -0.0936055 -0.00948142 0 894 300 -0.000492498 0.00127326 -0.00273038 4.61797e-08 3.67824e-06 
0 0 0 -0.0408851 -0.132101 0.00144656 0 894 2057 0.000504504 2.83872e-05 -0.0010106 1.90315e-08 1.51505e-06 
0 0 0 0.0537088 0.0265107 -0.000588128 0 894 36 -7.87039e-07 5.59425e-06 1.12987e-05 4.19072e-10 3.33489e-08 
0 0 0 0.083588 -0.109871 -0.0184137 0 894 1053 -0.00213811 0.000219569 -0.00429871 6.55364e-08 5.22204e-06 
0 0 0 -0.00719713 -0.00145338 0.103788 0 852 5 0.000774804 -7.15902e-05 0.000193889 5.39052e-09 4.2901e-07 
0 0 0 0.0228607 -0.00787229 0.0607581 0 852 352 -0.00172395 -0.00364097 0.00058495 5.3055e-08 4.22645e-06 
0 0 0 -0.0176279 -0.00800158 0.0982602 0 852 1438 3.32385e-05 -0.000675806 -0.000336264 2.27825e-08 1.8138e-06 
0 0 0 0.0536059 -0.000636921 -0.0365725 0 852 1187 -0.00221013 -0.00658183 -0.00243832 7.10235e-08 5.65988e-06 
0 0 0 0.00441505 -0.0538633 -0.0469878 0 855 702 0.00642844 0.00242197 0.000767946 7.22994e-08 5.7617e-06 
0 0 0 0.0095562 -0.0333 0.0536715 0 855 546 2.05747e-05 1.66533e-06 -1.01517e-05 1.39873e-08 1.11338e-06 
0 0 0 0.00816898 -0.0705771 -0.00878683 0 855 1326 0.00387312 -0.000395692 0.00157682 5.52029e-08 4.39774e-06 
0 0 0 -0.00827374 -0.049275 0.0780876 0 855 1986 0.0123383 0.00121283 -0.00255254 1.02637e-07 8.18431e-06 
0 0 0 -0.0021233 -0.049318 -0.0280809 0 855 1816 0.000361446 0.0001807 2.86077e-06 8.06081e-09 6.41562e-07 
0 0 0 0.0098711 0.00835784 0.045497 0 855 921 -0.000318364 -0.00028771 0.000177231 1.7825e-09 1.41852e-07 
0 0 0 0.0114318 -0.037736 0.0112722 0 854 2261 0.00835651 -0.00172121 -0.00380726 8.96598e-08 7.14767e-06 
0 0 0 -0.00152852 -0.0360597 0.0443884 0 854 1624 0.000168917 0.000101195 0.000735585 4.39647e-09 3.49891e-07 
0 0 0 0.00243351 -0.0914229 0.0795195 0 854 1872 0.00529075 -0.000716733 -0.00254643 6.26494e-08 4.99171e-06 
0 0 0 0.0332149 0.0545924 0.0442394 0 854 715 0.0013382 6.10411e-05 0.000504188 5.08563e-08 4.05112e-06 
0 0 0 0.0071825 -0.00232653 0.02429 0 854 841 0.00467681 -0.000703 -0.000492319 6.10144e-08 4.86128e-06 
0 0 0 -0.0132707 -0.0669535 0.0819059 0 854 867 0.00586118 0.000111852 0.000488694 5.69124e-08 4.53409e-06 
0 44.8917 84.1469 -0.0661709 45.4937 83.7172 1 2713 2346 20.2589 14.5808 14.5973 1.18065e-05 0.00150819 
0 45.9646 83.2255 -0.0661709 45.4937 83.7172 1 2694 2346 -20.2591 -11.8025 -16.1092 1.17551e-05 0.00149182 
0 0 0 -7.1819 -38.9069 33.1893 0 927 2351 0.0404528 0.04043 0.489529 1.97437e-06 0.000163825 
0 48.1989 58.4052 -3.94789e-05 48.914 57.8106 1 92 303 -0.0084777 0.00356142 -0.00314428 8.1841e-08 6.52334e-06 
0 48.1314 58.4827 -3.94789e-05 48.914 57.8106 1 91 303 -0.00948585 0.00463535 -0.0018326 9.07112e-08 7.23164e-06 
0 46.7954 59.5954 -3.94789e-05 48.914 57.8106 1 63 303 -0.0902678 0.116891 0.0250887 5.13139e-07 4.12599e-05 
0 46.0092 60.3052 -3.94789e-05 48.914 57.8106 1 85 303 -0.011714 0.0374553 0.0149597 2.24835e-07 1.79725e-05 
0 46.0903 60.2707 -3.94789e-05 48.914 57.8106 1 86 303 -0.00740308 0.0183053 0.00688642 1.41473e-07 1.12899e-05 
0 57.2693 63.3451 3.26294e-06 53.8079 62.5628 1 137 753 -0.00230338 0.00429613 -0.00505618 6.84833e-08 5.45717e-06 
0 57.2527 63.3537 3.26294e-06 53.8079 62.5628 1 138 753 -0.00229132 0.00422427 -0.0049334 6.75965e-08 5.38641e-06 
0 57.4611 63.7453 3.26294e-06 53.8079 62.5628 1 134 753 0.0151629 0.175906 -0.218796 8.1146e-07 6.56515e-05 
0 57.422 63.6924 3.26294e-06 53.8079 62.5628 1 136 753 0.0172698 -0.0824941 -0.552978 1.23707e-06 0.000100993 
0 56.3304 64.7402 3.26294e-06 53.8079 62.5628 1 2650 753 0.0843978 0.2168 -0.0892131 7.29325e-07 5.89053e-05 
0 55.8184 64.8144 3.26294e-06 53.8079 62.5628 1 125 753 -0.104208 0.343312 -0.172451 9.91244e-07 8.05008e-05 
0 56.2499 64.695 3.26294e-06 53.8079 62.5628 1 123 753 -0.0535022 0.314925 -0.250828 1.00433e-06 8.15858e-05 
0 55.6915 64.9584 3.26294e-06 53.8079 62.5628 1 2649 753 0.0925794 0.399407 -0.31778 1.1779e-06 9.60401e-05 
0 57.3103 64.0895 3.26294e-06 53.8079 62.5628 1 120 753 0.0452495 -0.000647943 -0.394529 9.89695e-07 8.03723e-05 
0 55.8361 64.8126 3.26294e-06 53.8079 62.5628 1 124 753 -0.101464 0.342254 -0.176702 9.9164e-07 8.05336e-05 
0 55.5404 65.4581 3.26294e-06 53.8079 62.5628 1 126 753 -0.021968 0.116152 -0.0256663 4.53079e-07 3.63858e-05 
0 55.5398 65.2881 3.26294e-06 53.8079 62.5628 1 2647 753 0.0541157 0.353664 -0.295658 1.09565e-06 8.91771e-05 
0 57.4302 63.8072 3.26294e-06 53.8079 62.5628 1 2707 753 0.0263027 0.177901 -0.210126 8.02143e-07 6.4885e-05 
0 54.436 66.4215 3.26294e-06 53.8079 62.5628 1 2674 753 0.0157927 0.0794857 -0.0457393 3.80944e-07 3.05478e-05 
0 54.3875 66.3655 3.26294e-06 53.8079 62.5628 1 2672 753 -0.000757328 0.26961 -0.187765 8.74327e-07 7.0831e-05 
0 54.6908 66.3309 3.26294e-06 53.8079 62.5628 1 2644 753 -0.00812374 0.179167 -0.14341 6.91237e-07 5.57849e-05 
0 54.0784 66.4453 3.26294e-06 53.8079 62.5628 1 2673 753 -0.00267463 0.184576 -0.108895 6.60566e-07 5.32757e-05 
0 56.3376 64.819 3.26294e-06 53.8079 62.5628 1 2721 753 0.0619877 0.214408 -0.0959281 7.17285e-07 5.79184e-05 
0 56.2738 65.1116 3.26294e-06 53.8079 62.5628 1 2722 753 0.0265221 0.141319 -0.0543871 5.30739e-07 4.26905e-05 
0 55.8619 65.4653 3.26294e-06 53.8079 62.5628 1 2703 753 -0.0144242 0.0719778 -0.0150584 3.30081e-07 2.64418e-05 
0 55.563 65.4842 3.26294e-06 53.8079 62.5628 1 2702 753 -0.0202457 0.115105 -0.0252018 4.49589e-07 3.6103e-05 
0 54.7449 66.3895 3.26294e-06 53.8079 62.5628 1 2724 753 0.00105544 0.0597467 0.0128972 2.88419e-07 2.30849e-05 
0 54.4847 66.4059 3.26294e-06 53.8079 62.5628 1 2726 753 0.0188511 0.0789632 -0.0415282 3.75865e-07 3.01375e-05 
0 63.1356 72.845 -0.0635664 62.6758 73.3237 1 2698 1116 -20.2736 -11.9612 -16.3859 1.17807e-05 0.00149993 
0 62.0627 73.7664 -0.0635664 62.6758 73.3237 1 2717 1116 20.2736 14.3946 14.304 1.17812e-05 0.00150007 
0 55.5248 -52.3123 0.133751 56.9998 -50.0387 1 1856 405 0.0340413 -0.00836959 0.0310054 3.29577e-07 2.64011e-05 
0 55.7063 -52.1009 0.133751 56.9998 -50.0387 1 1851 405 0.0595799 -0.0136411 0.0543097 4.29149e-07 3.44473e-05 
0 54.677 -52.8887 0.133751 56.9998 -50.0387 1 514 405 0.089265 -0.122404 0.316067 9.65295e-07 7.83505e-05 
0 54.6125 -53.0784 0.133751 56.9998 -50.0387 1 513 405 0.00718722 -0.0750718 0.107876 5.59657e-07 4.50433e-05 
0 54.9891 -52.6415 0.133751 56.9998 -50.0387 1 515 405 0.160095 -0.142825 0.224517 9.45979e-07 7.67513e-05 
0 55.0612 -52.5574 0.133751 56.9998 -50.0387 1 516 405 0.160239 -0.107044 0.29511 9.75387e-07 7.91864e-05 
0 55.4267 -51.8487 0.133751 56.9998 -50.0387 1 476 405 0.0987371 0.0225388 0.107205 5.406e-07 4.34925e-05 
0 0 0 1.71676e-12 -3.46571e-13 -1.91942e-13 0 885 23 -0.159273 -0.67473 -28.6401 1.17812e-05 0.00150007 
0 0 0 -1.82861e-15 -1.71764e-16 1.96867e-12 0 885 765 -0.917573 -0.24869 -28.7472 1.17929e-05 0.0015038 
0 0 0 -1.49375e-12 3.20835e-12 -2.05542e-13 0 885 1484 0.175005 0.756983 -28.5393 1.17701e-05 0.00149655 
0 0 0 1.64964e-12 -7.02699e-13 -2.15575e-13 0 885 124 -0.388912 -1.00647 -28.7372 1.17918e-05 0.00150345 
0 0 0 1.68491e-123 1.42023e-19 6.16511e-12 0 885 1052 -1.25475e-119 8.21841e-05 -28.6382 1.1781e-05 0.0015 
0 0 0 -8.68991e-121 -3.85607e-19 -3.92787e-12 0 885 1441 2.31362e-118 8.21841e-05 -28.6382 1.1781e-05 0.0015 
0 0 0 -4.08522e-12 -7.92395e-12 6.757e-12 0 885 173 6.94326e-12 8.21841e-05 -28.6382 1.1781e-05 0.0015 
0 0 0 2.2139e-12 2.66625e-12 -4.10566e-12 0 885 874 -4.27484e-13 8.21841e-05 -28.6382 1.1781e-05 0.0015 
0 0 0 -7.52114e-05 -0.000162898 1.64394e-06 0 885 281 1.03799 -0.264936 -28.4392 1.1759e-05 0.00149304 
0 0 0 -2.36311e-05 0.000217046 -3.54708e-06 0 885 2235 -1.15886 0.719877 -28.9215 1.18117e-05 0.00150988 
0 0 0 -2.17097e-69 2.02959e-19 -5.60331e-12 0 885 1154 -5.43858e-69 8.21841e-05 -28.6382 1.1781e-05 0.0015 
0 0 0 9.88513e-05 -5.41575e-05 1.90304e-06 0 885 171 -0.20179 -0.167939 -28.5546 1.17718e-05 0.00149708 
0 0 0 1.71676e-12 -3.46571e-13 -1.91942e-13 0 850 23 -0.158544 -0.671642 28.6363 1.17808e-05 0.00149993 
0 0 0 -1.82861e-15 -1.71764e-16 1.96867e-12 0 850 765 -0.620109 -0.168042 28.5293 1.1769e-05 0.0014962 
0 0 0 -1.49375e-12 3.20835e-12 -2.05542e-13 0 850 1484 0.273896 1.01398 28.7372 1.17918e-05 0.00150345 
0 0 0 1.64964e-12 -7.02699e-13 -2.15575e-13 0 850 124 -0.289622 -0.749493 28.5393 1.17701e-05 0.00149655 
0 0 0 1.68491e-123 1.42023e-19 6.16511e-12 0 850 1052 1.25723e-119 8.21841e-05 28.6382 1.1781e-05 0.0015 
0 0 0 -8.68991e-121 -3.85607e-19 -3.92787e-12 0 850 1441 -2.29996e-118 8.21841e-05 28.6382 1.1781e-05 0.0015 
0 0 0 -4.08522e-12 -7.92395e-12 6.757e-12 0 850 173 -3.72295e-13 8.21841e-05 28.6382 1.1781e-05 0.0015 
0 0 0 2.2139e-12 2.66625e-12 -4.10566e-12 0 850 874 1.23422e-12 8.21841e-05 28.6382 1.1781e-05 0.0015 
0 0 0 -7.52114e-05 -0.000162898 1.64394e-06 0 850 281 1.55088 -0.394599 28.8376 1.18027e-05 0.00150696 
0 0 0 -2.36311e-05 0.000217046 -3.54708e-06 0 850 2235 -0.835518 0.432051 28.3558 1.17496e-05 0.00149012 
0 0 0 -2.17097e-69 2.02959e-19 -5.60331e-12 0 850 1154 3.67677e-69 8.21841e-05 28.6382 1.1781e-05 0.0015 
0 0 0 9.88513e-05 -5.41575e-05 1.90304e-06 0 850 171 -0.392696 -0.32396 28.7218 1.17901e-05 0.00150292 
0 0 0 0.101925 -0.157655 0.0820149 0 895 684 -0.00382232 -0.00173268 -0.0122663 6.13497e-08 4.88803e-06 
0 0 0 -0.0257921 -0.086909 0.000181891 0 895 1377 8.91056e-05 2.85228e-05 -0.000190645 6.46355e-09 5.14419e-07 
0 0 0 -0.0165717 -0.129004 -0.00252234 0 895 1998 -3.56729e-05 0.000457907 -0.00091859 2.12176e-08 1.68915e-06 
0 0 0 -0.0404999 -0.171031 -0.0133893 0 895 1880 0.0033493 0.00620591 0.000406448 8.85288e-09 7.04614e-07 
0 0 0 0.0250322 -0.145396 0.0823962 0 895 337 0.00393842 0.0149965 -0.011067 5.34563e-08 4.25845e-06 
0 0 0 0.0649273 -0.209599 -0.00820505 0 895 1658 -6.95024e-05 -9.2119e-07 0.000139017 8.77664e-09 6.98545e-07 
0 0 0 -0.0292789 0.00772921 -0.033123 0 853 513 0.00123742 -0.0130831 0.00642343 1.07252e-07 8.55314e-06 
0 0 0 0.0757314 -0.000940301 -0.00433954 0 853 2002 -0.000301494 -0.00193604 0.00091987 3.19844e-08 2.54686e-06 
0 0 0 -0.0591384 -0.00111238 0.096456 0 853 2262 -5.51902e-05 -0.00101417 0.0011808 2.1272e-08 1.69349e-06 
0 0 0 0.0231981 -0.00562496 0.0700164 0 853 1424 0.00134364 -0.00579037 -1.78611e-05 6.84482e-08 5.45437e-06 
0 0 0 -0.00631448 -0.00554396 0.0513774 0 853 663 0.0017057 -0.0143395 -0.000419537 1.21619e-07 9.70164e-06 
0 0 0 -0.0485538 0.0106257 0.0734884 0 853 1195 -0.000518677 -0.00908471 -0.00219412 8.12235e-08 6.47404e-06 
0 0 0 -0.032506 -0.00378052 0.0294881 0 853 2041 0.00294494 -5.06395e-06 -0.00299769 6.61474e-09 5.26454e-07 
0 0 0 -0.0293367 0.00405866 0.0563224 0 853 584 0.000747699 -0.00178226 0.000484827 2.6422e-08 2.1037e-06 
0 0 0 -4.28048e-59 -2.02763e-19 -6.16528e-12 0 884 331 -4.10982e-58 8.21841e-05 -28.6382 1.1781e-05 0.0015 
0 0 0 0.129287 0.0309616 -0.10165 0 884 694 -0.00198733 -0.00677283 0.0141168 6.24908e-08 4.97906e-06 
0 0 0 0.00707384 -0.0584224 -0.0236312 0 884 406 -0.00123313 0.000404085 0.017434 1.22488e-07 9.77118e-06 
0 0 0 0.0512795 -0.135502 -0.0172755 0 884 1400 0.00182043 0.00198008 0.00537947 5.05803e-08 4.02911e-06 
0 0 0 0.111806 -0.0813103 0.00923172 0 884 1679 0.000153889 7.94164e-05 -0.000255987 8.00673e-10 6.37165e-08 
0 0 0 0.091977 -0.0325864 0.0250407 0 884 1016 -0.000824172 -8.13971e-05 0.00165636 4.76504e-08 3.7955e-06 
0 0 0 0.280626 -0.267208 0.00151907 0 885 761 -3.24189e-06 1.24935e-05 -2.58145e-05 1.84218e-09 1.46601e-07 
0 0 0 -4.28048e-59 -2.02763e-19 -6.16528e-12 0 850 331 3.65423e-58 8.21841e-05 28.6382 1.1781e-05 0.0015 
0 0 0 0.0434682 0.00663343 0.0811015 0 852 2301 -0.00320508 -0.00831703 -0.0021096 7.85361e-08 6.2595e-06 
0 0 0 3.05068e-05 -0.00641846 0.107004 0 852 1897 0.000602834 -0.00218514 -0.000911205 3.87179e-08 3.08345e-06 
0 0 0 -0.106052 -0.0194179 0.0317586 0 852 407 -0.00244356 -0.0265463 -0.00786704 1.88153e-07 1.50292e-05 
0 0 0 -0.0339117 -0.00144248 0.0260964 0 852 768 -0.00161423 -0.0024378 -0.000580626 3.75162e-08 2.98768e-06 
0 0 0 0.0456387 -0.0102501 -0.00976847 0 894 243 -3.53845e-05 0.000635178 -0.00127232 3.16545e-08 2.52057e-06 
0 0 0 0.0110501 -0.0244621 -0.00387183 0 894 1585 -0.000360404 -0.000627005 -0.00752835 7.96023e-08 6.34461e-06 
0 0 0 -0.0156005 -0.0727068 -0.0142853 0 894 18 -0.000209377 -0.00129607 -0.00664018 7.99631e-08 6.37341e-06 
0 0 0 0.0191603 -0.0327489 0.0260436 0 894 11 0.00394316 -0.00121398 -0.00950665 7.49064e-08 5.96977e-06 
0 0 0 0.0310629 -0.110173 -0.00341169 0 894 1908 -0.000582878 0.00247395 -0.000160423 9.86886e-09 7.85493e-07 
0 0 0 -0.00547716 -0.0190049 -0.0105223 0 894 1995 -0.00286469 0.000112267 -0.00833554 8.89779e-08 7.09321e-06 
0 0 0 -0.00502223 -0.11098 0.00378678 0 894 1999 0.00195053 0.000147596 -0.00433887 5.09702e-08 4.0602e-06 
0 0 0 -0.0172916 -0.0651063 0.000117859 0 894 567 0.000286851 0.000110317 -0.000641987 1.48726e-08 1.18388e-06 
0 0 0 -0.0073342 -0.045053 0.00206602 0 894 1790 0.000259349 5.1616e-06 -0.00801413 7.9264e-08 6.3176e-06 
0 0 0 -0.0355768 -0.0398728 0.00200432 0 894 1834 0.000178308 4.73797e-05 -0.00036899 8.3293e-09 6.62934e-07 
0 0 0 -0.0187443 0.086165 -0.00990843 0 894 1935 0.000111397 -0.000488993 -0.00148875 3.41728e-08 2.72123e-06 
0 0 0 0.0413733 -0.00648073 -0.000268443 0 894 1340 0.00308306 -0.000370522 -0.029648 1.92291e-07 1.5361e-05 
0 0 0 -3.88945e-286 4.97667e-23 -2.24229e-12 0 894 272 2.64624e-278 8.21841e-05 28.6382 1.1781e-05 0.0015 
0 0 0 -0.03764 -0.00158139 0.0498065 0 852 859 0.000395624 -0.00635856 0.000103513 7.00164e-08 5.57951e-06 
0 0 0 -0.0413688 0.0080674 0.0879362 0 852 2029 0.00344842 -0.0125449 -0.00523944 1.03957e-07 8.28983e-06 
0 0 0 0.0456387 -0.0102501 -0.00976847 0 852 243 3.48855e-06 -0.000915691 0.000457832 2.78456e-08 2.21711e-06 
0 0 0 -0.0491962 -0.00378918 0.127678 0 852 1103 6.55196e-05 -0.000495712 -0.000239039 1.62564e-08 1.29406e-06 
0 0 0 -0.0393313 0.000410789 0.0779102 0 852 951 -0.000943544 -0.00680543 -0.00326928 7.19573e-08 5.7344e-06 
0 0 0 -0.048786 0.00210292 0.0960403 0 852 749 -0.00205954 -0.00188318 -0.000610148 2.9066e-08 2.31434e-06 
0 0 0 0.011669 0.000318649 0.0779786 0 852 1037 0.000447259 -0.0043129 -0.00097507 5.30852e-08 4.22886e-06 
0 0 0 -0.0016306 -0.00571872 0.134559 0 852 1798 -0.000992321 9.99934e-05 -0.00460821 6.26114e-09 4.98307e-07 
0 0 0 -0.00780274 0.000567597 0.0836695 0 852 2186 -0.000231407 -0.00201015 -0.00149307 3.16201e-08 2.51784e-06 
0 0 0 -0.0178308 0.00235901 0.046645 0 852 1321 0.0024281 -0.0158958 -0.00285452 1.25715e-07 1.00292e-05 
0 0 0 -3.88945e-286 4.97667e-23 -2.24229e-12 0 849 272 -2.64624e-278 8.21841e-05 -28.6382 1.1781e-05 0.0015 
0 0 0 -0.00203363 -0.0562304 -0.0110247 0 895 2166 -6.92423e-05 0.000128849 0.000292552 6.4202e-10 5.1091e-08 
0 0 0 -0.0198722 -0.0792349 0.0199042 0 895 580 -0.0021747 0.00145214 -0.00223897 1.97377e-08 1.57129e-06 
0 0 0 -0.0200858 -0.107349 0.00770036 0 895 615 0.00331022 0.00161543 -0.00736672 7.13955e-08 5.68957e-06 
0 0 0 -0.115176 -0.0756453 -0.0106605 0 895 1410 5.92554e-05 -1.92265e-05 0.000325276 6.7473e-09 5.37006e-07 
0 0 0 -0.0113009 -0.0748873 0.00998921 0 895 2129 0.0025371 0.00428537 -0.00477676 5.04551e-08 4.01912e-06 
0 0 0 -0.0306241 -0.0829839 -0.00369931 0 895 1620 -0.000972965 0.000298922 -0.0020357 3.5144e-08 2.79863e-06 
0 0 0 0.00903807 -0.114496 -0.00331624 0 895 729 -0.000528392 9.79016e-06 -0.00105697 2.37056e-08 1.88732e-06 
0 0 0 -0.034526 0.00592783 0.0158772 0 853 1454 0.00127541 -0.000993677 0.00235018 1.49704e-08 1.19166e-06 
0 0 0 -0.00361352 -0.0108553 -0.00497838 0 853 941 0.00253671 -0.00899458 -0.000533026 9.33884e-08 7.44547e-06 
0 0 0 -0.000353771 -0.0139157 -0.0138658 0 853 2177 -0.00228219 -0.00806246 0.00332301 8.92512e-08 7.11504e-06 
0 0 0 -0.0348822 -0.00866094 -0.0144719 0 853 875 0.00142619 -0.00292064 0.00450381 4.73206e-08 3.7692e-06 
0 -75.894 80.5814 45.7319 -75.6871 45.4987 1 2276 442 0.625707 -0.270719 0.0527632 5.45687e-06 0.000495665 
0 0 0 -2.16995 15.0209 24.3354 0 943 2249 -0.0216208 0.765783 -0.560498 1.85574e-06 0.000153571 
0 0 0 0.165332 13.1226 28.4677 0 941 38 0.0106574 -0.0295594 0.0854357 8.00294e-07 6.4733e-05 
0 0 0 -4.20582 28.3707 10.2906 0 951 1714 -0.348923 0.212225 -0.967665 1.38098e-06 0.000113092 
0 0 0 -1.15814 19.4867 8.90772 0 397 219 -0.00437491 0.216822 -0.574197 1.38532e-06 0.000113459 
0 0 0 1.0645e-06 2.9493e-12 3.90549e-12 0 961 428 4.93118e-15 9.45454 12.5197 9.45155e-06 0.00100427 
0 0 0 1.0645e-06 2.9493e-12 3.90549e-12 0 753 428 -4.93292e-15 -9.45437 -12.5197 9.45152e-06 0.00100427 
0 64.304 -57.0663 0.0659908 62.6627 -53.5356 1 526 1181 -0.0180539 -0.100238 -0.123758 5.55881e-07 4.47359e-05 
0 64.5705 -56.655 0.0659908 62.6627 -53.5356 1 541 1181 -0.0362902 -0.273622 -0.289149 1.02607e-06 8.33902e-05 
0 64.3397 -57.1206 0.0659908 62.6627 -53.5356 1 527 1181 -0.00357681 -0.069331 -0.0856469 4.39864e-07 3.53151e-05 
0 64.9015 -56.1168 0.0659908 62.6627 -53.5356 1 523 1181 -0.107705 -0.133823 -0.301761 9.07843e-07 7.3598e-05 
0 64.5835 -54.7771 0.0659908 62.6627 -53.5356 1 544 1181 -0.00649658 -0.00334365 -0.0100645 7.31997e-08 5.83356e-06 
0 65.0994 -56.55 0.0659908 62.6627 -53.5356 1 1871 1181 -0.0294527 -0.0729035 -0.159793 5.90464e-07 4.7553e-05 
0 65.2773 -56.2227 0.0659908 62.6627 -53.5356 1 1870 1181 -0.0389162 -0.0457504 -0.135675 5.19158e-07 4.1749e-05 
0 65.2716 -56.0803 0.0659908 62.6627 -53.5356 1 1869 1181 -0.0610566 -0.0906415 -0.269161 8.05376e-07 6.5151e-05 
0 65.2502 -55.5414 0.0659908 62.6627 -53.5356 1 1868 1181 -0.0620475 -0.417957 -0.420306 1.28341e-06 0.00010488 
0 65.9553 -55.6418 0.0659908 62.6627 -53.5356 1 1892 1181 0.00364901 -0.00345435 -0.0295984 1.93813e-07 1.5483e-05 
0 66.4517 -54.3015 0.0659908 62.6627 -53.5356 1 1829 1181 -0.0260596 -0.304362 -0.391019 1.14137e-06 9.29888e-05 
0 66.1667 -55.3071 0.0659908 62.6627 -53.5356 1 1893 1181 -0.0673415 -0.0521025 -0.202198 6.75606e-07 5.45058e-05 
0 66.3175 -54.2985 0.0659908 62.6627 -53.5356 1 1885 1181 -0.043612 -0.394383 -0.525123 1.36854e-06 0.000112044 
0 66.211 -52.8488 0.0659908 62.6627 -53.5356 1 1835 1181 -0.0194024 -0.0234365 -0.186641 5.93634e-07 4.78114e-05 
0 66.1868 -52.8425 0.0659908 62.6627 -53.5356 1 1834 1181 -0.0202874 -0.0211476 -0.188051 5.95982e-07 4.80028e-05 
0 66.2849 -53.4801 0.0659908 62.6627 -53.5356 1 1887 1181 -0.0325275 0.025003 -0.0436144 2.6547e-07 2.12382e-05 
0 64.888 -56.8847 0.0659908 62.6627 -53.5356 1 1873 1181 -0.000359036 -0.00543814 -0.00930358 1.08688e-07 8.66792e-06 
0 64.2435 -57.2302 0.0659908 62.6627 -53.5356 1 530 1181 0.000167874 -0.0058293 -0.00674133 1.05916e-07 8.44635e-06 
0 66.0932 -54.9454 0.0659908 62.6627 -53.5356 1 1826 1181 -0.00336087 -0.0220066 -0.23028 7.03326e-07 5.67747e-05 
0 66.3377 -54.5701 0.0659908 62.6627 -53.5356 1 1828 1181 -0.0325855 -0.31846 -0.392536 1.16187e-06 9.47004e-05 
0 65.952 -55.0119 0.0659908 62.6627 -53.5356 1 1842 1181 0.0231268 -0.0106763 -0.186546 6.17888e-07 4.97898e-05 
0 66.3551 -54.5594 0.0659908 62.6627 -53.5356 1 1831 1181 -0.0332047 -0.318598 -0.387399 1.15563e-06 9.41791e-05 
0 66.4422 -54.374 0.0659908 62.6627 -53.5356 1 1830 1181 -0.0281391 -0.302939 -0.376599 1.12415e-06 9.15523e-05 
0 66.5367 -52.4806 0.0659908 62.6627 -53.5356 1 1837 1181 -0.00667387 0.0145981 -0.0176893 1.36328e-07 1.08782e-05 
0 0 0 0.000274661 -5.40628e-05 2.92235e-05 0 963 716 -0.820083 4.71281 13.3815 8.77886e-06 0.000902001 
0 0 0 -0.00420902 -0.127855 -0.0325408 0 893 1638 -0.000152797 7.62855e-05 4.15532e-06 1.06063e-08 8.44202e-07 
0 0 0 0.000274661 -5.40628e-05 2.92235e-05 0 751 716 0.62364 -5.17419 -8.98185 7.55966e-06 0.000737588 
0 0 0 0.000274661 -5.40628e-05 2.92235e-05 0 752 716 0.196563 0.461515 -4.3996 4.72047e-06 0.000419675 
0 0 0 -0.0441929 0.0105315 -0.0368337 0 891 832 -0.00168303 -0.000592439 0.000597631 6.21684e-08 4.95334e-06 
0 0 0 -0.071163 0.171799 0.126227 0 888 566 -0.00843551 -0.00400855 -0.00131186 1.25625e-07 1.0022e-05 
0 0 0 -0.0468427 -0.0675843 -0.07704 0 888 1337 -0.0147833 0.00242194 -0.00311078 1.46517e-07 1.16937e-05 
0 0 0 -0.00439599 0.235715 -0.110202 0 888 2197 -0.00223027 -0.000708348 0.000471795 3.76507e-08 2.99839e-06 
0 0 0 -0.00400164 -0.0155964 -0.0387082 0 888 2154 -0.00654849 0.000724799 0.000739892 7.28936e-08 5.80912e-06 
0 0 0 0.09805 -0.08132 0.0491607 0 888 1971 -0.0185164 0.0085518 0.00354694 8.95175e-08 7.13631e-06 
0 0 0 -0.0043546 -0.00475994 -0.0535638 0 888 1659 -0.00366417 0.000570807 0.00809015 5.08239e-08 4.04853e-06 
0 0 0 -0.0119861 0.0972946 0.0733781 0 888 1188 -0.000106912 -4.40273e-05 -3.03173e-05 1.81254e-08 1.4429e-06 
0 0 0 -0.00331495 -0.0085466 -0.0197329 0 888 25 -0.0226323 0.000569985 -0.000130634 1.62289e-07 1.29566e-05 
0 0 0 0.00106287 0.00542527 0.0431999 0 888 825 -0.00912979 0.000209691 2.20092e-05 8.71817e-08 6.94977e-06 
0 0 0 0.01011 0.0271267 0.0499206 0 888 378 -0.00404255 -0.00190653 -0.0110666 4.41865e-08 3.51935e-06 
0 0 0 0.011588 0.000921479 -0.0509421 0 888 1781 -0.000961469 4.4267e-05 0.000478692 9.8327e-09 7.82615e-07 
0 0 0 0.00106287 0.00542527 0.0431999 0 853 825 -4.09641e-05 -0.000775281 -0.00038547 1.2155e-08 9.67496e-07 
0 0 0 0.01011 0.0271267 0.0499206 0 853 378 -0.000599318 -0.00749702 -0.00370029 6.04499e-08 4.81625e-06 
0 0 0 0.011588 0.000921479 -0.0509421 0 853 1781 -0.0010523 -0.000115377 0.00147978 3.6415e-09 2.89802e-07 
0 0 0 0.0441125 -0.0122251 -0.0265491 0 853 1595 9.75316e-06 0.000280147 0.000139734 1.0717e-08 8.53015e-07 
0 0 0 -0.0600385 -0.0216452 0.180232 0 891 98 -0.0186994 0.0039434 -0.00435492 1.72877e-07 1.38048e-05 
0 0 0 -0.00959281 -0.102148 0.0559908 0 891 1033 -0.00120212 0.000127188 -0.00058745 3.07064e-08 2.44503e-06 
0 0 0 -0.0228159 -0.210922 0.111486 0 891 301 -0.00259445 0.000873497 -0.000959061 5.45775e-08 4.34786e-06 
0 0 0 0.0143017 -0.0550655 -0.00286273 0 891 1703 -0.0103378 0.00179066 -0.00484884 8.70872e-08 6.94223e-06 
0 0 0 0.00382638 -0.0550258 0.0105811 0 891 457 -0.0247828 0.000266284 -0.00615653 1.68678e-07 1.34683e-05 
0 0 0 -0.00515913 -0.0830865 0.00403707 0 887 744 -0.00117557 -0.000504663 -0.00247308 2.67253e-08 2.12787e-06 
0 0 0 0.00381996 -0.0659746 0.00309325 0 893 1178 -0.000530853 0.000260345 5.16899e-05 9.57153e-09 7.61823e-07 
0 0 0 -0.00835448 -0.0745122 0.00205104 0 893 1494 -0.00343486 0.00115372 -0.00114518 5.16315e-08 4.11294e-06 
0 0 0 -0.0564514 -0.113386 0.234571 0 892 2032 -0.00471761 0.000727572 -0.00224379 9.34475e-08 7.4502e-06 
0 0 0 -0.00122704 -0.207961 -0.0617748 0 892 571 -8.52018e-05 4.21752e-05 6.00718e-06 5.47884e-09 4.3604e-07 
0 0 0 -0.01212 -0.069058 0.0196532 0 892 297 -2.65383e-05 1.14488e-05 -6.70783e-06 1.69009e-08 1.34538e-06 
0 0 0 -0.033024 -0.141693 0.0181485 0 895 188 0.00012304 0.00506727 -0.0146377 1.10288e-07 8.79576e-06 
0 0 0 -0.00835448 -0.0745122 0.00205104 0 895 1494 0.000707782 0.0058612 -0.00436039 5.23134e-08 4.16731e-06 
0 0 0 0.0219594 -0.0128242 -0.00713502 0 895 314 -0.00311438 0.000397091 -0.00708582 7.85909e-08 6.26387e-06 
0 0 0 0.00656999 0.0709542 6.79505e-05 0 895 133 0.00012532 -0.000583211 -0.00504098 5.90893e-08 4.70771e-06 
0 0 0 0.0380648 0.151888 0.10559 0 888 2203 -0.0101726 -0.00283899 -0.00422028 7.22949e-08 5.76134e-06 
0 0 0 -0.00514454 0.254744 0.230756 0 888 1114 -0.000739106 -0.0208085 -0.0188399 2.10881e-08 1.67884e-06 
0 0 0 -0.00664118 0.00127913 -0.00300846 0 888 2201 -0.00791657 0.00395463 0.000170098 8.38909e-08 6.687e-06 
0 0 0 0.00379721 -0.0570987 0.0061066 0 888 2033 -0.00551485 0.000160707 -0.000353487 6.03303e-08 4.80671e-06 
0 0 0 0.00531793 -0.0149099 0.0376496 0 888 1071 -0.00501726 0.00265798 -0.00344512 5.54637e-08 4.41854e-06 
0 0 0 -0.00215348 -0.00569138 0.0110401 0 888 668 -0.0102879 0.00460132 -0.00201917 9.63247e-08 7.68002e-06 
0 0 0 -0.00190209 0.136878 0.0389824 0 888 433 -0.000911453 -0.000396757 -0.000224211 2.05816e-08 1.6385e-06 
0 0 0 -0.00215348 -0.00569138 0.0110401 0 853 668 0.000381492 -0.00647225 -0.000618845 7.34123e-08 5.85052e-06 
0 0 0 -0.190691 17.3098 16.4734 0 393 1516 -0.00656089 0.42944 -0.508397 1.50923e-06 0.000123941 
0 0 0 1.93095 17.8326 17.3224 0 393 1957 0.0577262 0.445033 -0.78192 1.72831e-06 0.00014262 
0 0 0 -3.30998 10.3983 33.0097 0 387 1780 0.0102014 0.927095 -0.364016 1.9936e-06 0.000165493 
0 72.9684 84.9683 -1.47366 17.7406 22.7523 1 2611 165 0.728314 -0.848056 6.49971 2.47403e-06 0.000207657 
0 0 0 -1.97308 -30.451 12.6702 0 369 239 -0.0256661 0.0952719 0.47932 1.72604e-06 0.000142425 