ITEM: TIMESTEP
18750000
ITEM: NUMBER OF ENTRIES
568
ITEM: BOX BOUNDS ff ff ff
-0.01 0.45
-0.15 0.15
-0.08 0.1
ITEM: ENTRIES c_pwc[1] c_pwc[2] c_pwc[3] c_pwc[4] c_pwc[5] c_pwc[6] c_pwc[7] c_pwc[8] c_pwc[9] c_pwc[10] c_pwc[11] c_pwc[12] c_pwc[13] c_pwc[14] 
0 0 0 0.437628 9.12736 2.09843 0 950 27 -0.00635215 0.0312178 -0.098442 6.24217e-07 5.03063e-05 
0 0 0 0.129169 8.49826 7.40573 0 946 904 0.00174597 0.198016 -0.272572 7.08911e-07 5.72322e-05 
0 -35.6121 -49.5974 0.74541 -6.31873 0.0871814 1 962 288 0.019805 0.331017 -0.632829 1.96553e-07 1.57028e-05 
0 0 0 0.220238 5.76219 -6.04322 0 867 143 0.257043 -1.06572 0.894713 8.73405e-07 7.0755e-05 
0 0 0 -0.817214 3.59423 -12.0128 0 960 1183 -0.00302766 0.712328 0.278811 1.66707e-06 0.00013738 
0 0 0 1.09541e-182 -1.21775e-19 -1.11877e-12 0 850 393 1.1907e-178 8.21841e-05 28.6382 1.1781e-05 0.0015 
0 0 0 8.73933e-22 2.43371e-19 5.06136e-12 0 850 1145 -2.54162e-21 8.21841e-05 28.6382 1.1781e-05 0.0015 
0 0 0 1.24989e-09 -4.60531e-09 1.95283e-12 0 850 465 0.918077 0.249247 28.7466 1.17928e-05 0.00150378 
0 0 0 -2.89058e-09 -1.81038e-09 -2.63738e-11 0 850 665 0.312044 0.827493 28.7535 1.17936e-05 0.00150402 
0 0 0 1.09541e-182 -1.21775e-19 -1.11877e-12 0 885 393 -1.19086e-178 8.21841e-05 -28.6382 1.1781e-05 0.0015 
0 0 0 1.24989e-09 -4.60531e-09 1.95283e-12 0 885 465 0.622257 0.168961 -28.5299 1.1769e-05 0.00149622 
0 0 0 -2.89058e-09 -1.81038e-09 -2.63738e-11 0 885 665 0.235435 0.504271 -28.5231 1.17683e-05 0.00149598 
0 0 0 8.73933e-22 2.43371e-19 5.06136e-12 0 884 1145 2.60119e-21 8.21841e-05 -28.6382 1.1781e-05 0.0015 
0 0 0 0.14009 0.486738 0.16938 0 855 104 -0.00651007 0.00323567 0.000354528 6.15334e-08 4.90268e-06 
0 0 0 0.0584248 0.884095 0.364321 0 855 1833 0.043016 -0.0212173 -0.00352436 2.72541e-07 2.1807e-05 
0 0 0 0.00790153 0.135155 -0.0481657 0 855 1805 0.00397626 -0.00518401 0.00137749 5.58725e-08 4.45115e-06 
0 0 0 0.00876143 -0.207622 -0.0367221 0 894 273 -0.000149678 0.0011828 -0.00238446 6.27332e-08 4.99839e-06 
0 0 0 0.027662 0.37949 -0.1212 0 894 1951 0.00573327 -0.0264739 -0.0557723 3.44774e-07 2.76271e-05 
0 0 0 0.00119203 0.0941285 0.00286203 0 884 1445 0.00748932 -0.00599833 0.0364934 2.21917e-07 1.77382e-05 
0 0 0 -0.223704 -0.138111 0.0661654 0 884 1958 0.0475795 0.00538996 0.00966874 1.29767e-07 1.03533e-05 
0 0 0 -0.0842507 0.24628 -0.0238743 0 884 520 -0.0184515 -0.000752476 0.00474943 4.11239e-08 3.27522e-06 
0 0 0 -0.0119129 -0.0120277 -0.0404078 0 884 210 0.0249971 0.0110937 0.0630048 2.99635e-07 2.39881e-05 
0 0 0 0.0469384 0.0439028 0.0616032 0 884 1941 0.000506375 -0.000171066 -0.00252421 3.84934e-09 3.06344e-07 
0 0 0 -0.243922 0.0457188 0.0207079 0 884 58 0.00161796 0.00337437 0.0131665 1.23555e-07 9.85648e-06 
0 0 0 -0.511063 -0.158315 0.0242074 0 884 935 0.0169565 -0.0130999 0.0428546 2.56405e-07 2.05092e-05 
0 0 0 0.0667328 0.358342 -0.181403 0 854 627 0.00477818 0.0101044 -0.0209666 1.00395e-07 8.00522e-06 
0 0 0 0.00119203 0.0941285 0.00286203 0 854 1445 0.0831083 0.0152195 -0.00463741 3.81059e-07 3.05571e-05 
0 0 0 -0.0370263 -0.115367 0.233306 0 854 1765 0.0368869 0.0179431 -0.0042669 2.04866e-07 1.63697e-05 
0 0 0 0.011777 0.0592338 0.135394 0 854 2204 0.0229546 0.00760287 -0.017529 1.68087e-07 1.34209e-05 
0 0 0 -0.00354045 -0.0860247 0.228068 0 854 734 0.0554672 -0.00610809 -0.0118483 2.89637e-07 2.31829e-05 
0 0 0 -0.00766897 -0.0162588 -0.113211 0 854 235 0.0125717 -0.00171252 0.00585887 1.04337e-07 8.32017e-06 
0 0 0 0.0236137 -0.0184028 0.0404518 0 854 1121 0.0365466 0.00841216 0.00772874 2.3183e-07 1.85343e-05 
0 0 0 -0.0322971 0.196178 0.195626 0 854 197 0.102896 0.0169501 -0.00434883 4.25694e-07 3.41675e-05 
0 0 0 -0.023444 -0.0893608 0.346898 0 854 2119 0.0527927 0.00331289 -0.00865146 2.71507e-07 2.17238e-05 
0 0 0 0.0215932 -0.113731 0.146821 0 854 250 0.00536063 -0.000910111 -0.000419229 7.55645e-08 6.0223e-06 
0 0 0 -0.0198647 -0.0991217 0.0145068 0 854 415 0.0100011 0.00444986 0.00228129 8.17224e-08 6.51387e-06 
0 0 0 0.0122756 -0.0870906 0.111746 0 854 2085 -0.000433572 0.000117834 -0.000181965 3.28581e-09 2.61494e-07 
0 0 0 -0.00568178 -0.0942025 0.158416 0 854 1872 0.0105767 0.000138549 -0.00529917 9.35593e-08 7.45912e-06 
0 0 0 0.00747441 -0.0364207 -0.000778208 0 854 1417 0.0143723 -0.00391751 -0.00266919 1.22856e-07 9.80062e-06 
0 0 0 0.00205487 -0.0442037 0.0914611 0 854 1665 -4.72991e-06 1.63658e-06 -1.70722e-06 3.79982e-09 3.02403e-07 
0 0 0 -0.0978553 -0.0466234 0.0754486 0 854 948 0.0391813 0.00219688 0.0109124 1.86087e-07 1.48636e-05 
0 0 0 0.0157802 -0.0237978 0.00105128 0 854 86 0.000651772 0.00280001 0.000421398 2.93605e-08 2.3378e-06 
0 0 0 -0.0830224 -0.00493829 0.0548372 0 853 1654 0.00298136 -0.0168003 0.00508366 1.34384e-07 1.07227e-05 
0 0 0 -0.0119129 -0.0120277 -0.0404078 0 853 210 0.0232391 -0.1011 -0.0175723 4.37929e-07 3.51583e-05 
0 0 0 -0.146174 -0.083298 0.00458814 0 853 1418 0.0200372 -0.0587993 -0.0116042 3.3847e-07 2.71184e-05 
0 0 0 -0.359104 -0.126674 -0.0493855 0 853 795 0.00639648 -0.0372807 -0.0318679 2.8252e-07 2.261e-05 
0 0 0 0.0765034 0.0346322 -0.125223 0 853 1122 -0.0256727 -0.0649035 0.0722654 3.08462e-07 2.46991e-05 
0 0 0 -0.0892168 -0.119431 0.0712512 0 853 1592 -0.00914646 -0.029 -0.00365565 2.47196e-07 1.9769e-05 
0 0 0 -0.294827 -0.0642611 0.17278 0 853 1973 -0.00990733 -0.0685631 -0.0165131 3.61984e-07 2.90162e-05 
0 0 0 -0.11277 -0.0833631 0.221715 0 853 2081 0.0111656 -0.0490498 -0.00213657 3.05371e-07 2.44501e-05 
0 0 0 -0.0254089 -0.0413336 0.255616 0 853 786 0.00495149 -0.0181267 -0.00759128 1.60338e-07 1.28002e-05 
0 0 0 -0.0379079 -0.0588369 0.057557 0 852 2202 -0.000516344 -0.00752186 0.00100114 1.12908e-07 9.00521e-06 
0 0 0 0.0157802 -0.0237978 0.00105128 0 852 86 -0.00018783 0.000287621 -0.00029808 2.4037e-08 1.91372e-06 
0 0 0 -0.0751911 0.00648481 0.0110626 0 852 2212 0.00129516 -0.0027372 -0.000442281 3.46717e-08 2.761e-06 
0 0 0 -0.0432911 0.0714625 0.0622378 0 852 962 -0.00117037 -0.0480792 -0.014986 2.3299e-07 1.86275e-05 
0 0 0 -0.297947 -0.027341 0.295776 0 852 793 -0.00389625 -0.00249193 0.000748913 5.69365e-08 4.53601e-06 
0 0 0 -0.0470799 -0.0473548 0.143315 0 852 1864 -0.000229595 -0.0381191 -0.0111272 2.49016e-07 1.99152e-05 
0 0 0 0.0810479 0.0740526 0.280019 0 852 1715 -0.00808883 -0.02649 -0.0016467 1.41784e-07 1.13148e-05 
0 0 0 -0.0882456 -0.0533341 -0.0425484 0 852 674 0.00122118 -0.00550764 -0.000242874 9.67744e-08 7.71594e-06 
0 0 0 -0.225715 0.017182 0.069566 0 852 1895 0.00515686 -0.0306101 -0.00350236 1.87995e-07 1.50165e-05 
0 0 0 -0.0241082 -0.0113522 0.0540378 0 852 747 0.00115625 -0.0072058 0.000488646 8.20096e-08 6.5368e-06 
0 0 0 0.0405331 -0.00473974 0.272386 0 852 952 -0.00616987 -0.0191365 -0.0111555 1.46135e-07 1.16631e-05 
0 0 0 -0.0401022 0.00353856 0.161696 0 852 526 -0.00158974 -0.00336283 -0.00488774 4.26796e-08 3.39923e-06 
0 0 0 -0.937116 1.51481 -0.889057 0 855 1204 0.24061 0.0991991 -0.0680651 4.5642e-07 3.66567e-05 
0 0 0 -0.00952603 -0.156178 -0.00575008 0 894 328 -4.48319e-05 7.53285e-05 0.00017532 1.98539e-09 1.57998e-07 
0 0 0 0.0406592 -0.0968025 0.00487174 0 894 1387 -0.000209574 0.000834016 -0.00171989 2.50733e-08 1.99627e-06 
0 0 0 0.0357766 -0.155401 -0.0104104 0 894 1131 -0.000458457 -0.000118178 -0.00293069 4.86614e-08 3.87611e-06 
0 0 0 0.0226426 -0.115894 -0.00803815 0 894 677 0.00137375 0.00213611 -0.00874942 9.01545e-08 7.18718e-06 
0 0 0 0.076076 -0.177809 -0.00829335 0 894 398 -0.00385434 0.00295799 -0.00971712 9.63918e-08 7.68538e-06 
0 0 0 -0.0367771 0.00354 -0.0620621 0 894 1059 -0.00878765 -0.0316894 -0.0210123 1.84706e-07 1.47528e-05 
0 0 0 -0.0110899 -0.143733 0.00129309 0 894 1386 0.00106847 0.0012913 -0.00304398 4.13387e-08 3.29234e-06 
0 0 0 -0.0234942 -0.132618 0.00647632 0 894 1322 0.00217489 0.00438014 -0.00283105 3.55984e-08 2.83484e-06 
0 0 0 -0.0328541 -0.173562 -0.00349309 0 894 1994 -0.000108818 0.0014386 -0.00812598 8.33717e-08 6.64555e-06 
0 0 0 -0.0717033 0.00460038 0.0851695 0 852 1118 0.00609987 -0.00100294 -0.00947268 1.62294e-08 1.29191e-06 
0 0 0 0.00730764 1.92408e-06 0.0565301 0 852 2079 5.96285e-05 -0.001251 -0.000622654 2.33675e-08 1.86039e-06 
0 0 0 0.00199316 0.298199 0.0897737 0 855 1419 0.0032111 -0.0344678 -0.0089931 4.51997e-08 3.60012e-06 
0 0 0 -0.0279346 -0.143156 0.0153626 0 855 2103 0.00106171 0.00439711 -0.00333606 2.18181e-09 1.7363e-07 
0 0 0 0.00110898 -0.165504 0.00515959 0 855 802 0.00414473 0.00204194 -0.000353826 5.26567e-08 4.19468e-06 
0 0 0 0.0114234 -0.153043 0.00186246 0 855 702 -0.000180192 6.83528e-05 -5.8696e-05 1.20503e-08 9.59162e-07 
0 0 0 -0.000492564 -0.144145 0.0501962 0 855 1443 0.00122799 0.000281506 -0.000241792 2.26729e-08 1.80507e-06 
0 0 0 0.00482842 -0.167302 -0.031527 0 855 22 0.0153617 0.00309908 -0.00225811 1.26752e-07 1.01122e-05 
0 0 0 0.0175525 -0.143864 -0.0225835 0 855 17 0.000688722 -0.000138211 -0.000265114 3.13482e-08 2.49617e-06 
0 0 0 -0.0158393 -0.14862 -0.0421134 0 855 980 0.0108181 0.00053698 -0.00233723 8.91919e-08 7.11031e-06 
0 0 0 0.0143087 -0.131649 0.0350199 0 855 2231 0.00221669 0.00535031 -0.000348034 4.49235e-08 3.5781e-06 
0 0 0 -0.00695707 -0.0700464 0.0685259 0 855 921 0.00648809 0.00101729 -0.00319214 6.55881e-08 5.22616e-06 
0 0 0 -0.0235398 -0.094172 0.100331 0 854 2153 0.00173701 0.00012927 -0.000858831 1.14429e-08 9.10808e-07 
0 0 0 -0.00810804 -0.00419588 0.15909 0 854 1365 0.00651546 -0.000420876 -0.00184695 6.50661e-08 5.18451e-06 
0 0 0 0.000183126 -0.058671 0.098778 0 854 867 0.00737242 -0.000692738 -0.000835214 7.62768e-08 6.07915e-06 
0 74.1315 75.5124 -0.00359092 71.0337 75.3505 1 2696 2346 1.94648 1.17615 -2.46318 3.86519e-06 0.000335767 
0 74.4006 75.7174 -0.00359092 71.0337 75.3505 1 2700 2346 0.846676 0.69541 -1.21254 2.49256e-06 0.000209304 
0 74.3443 75.6712 -0.00359092 71.0337 75.3505 1 2699 2346 1.04152 0.80598 -1.45458 2.79037e-06 0.000235971 
0 73.338 76.683 -0.00359092 71.0337 75.3505 1 2714 2346 0.961697 0.495543 -0.241822 1.94693e-06 0.000161448 
0 73.4537 76.7664 -0.00359092 71.0337 75.3505 1 2715 2346 0.533945 0.309836 -0.151552 1.37214e-06 0.000112347 
0 73.541 76.834 -0.00359092 71.0337 75.3505 1 2727 2346 0.276625 0.174261 -0.085542 9.23014e-07 7.48518e-05 
0 71.1762 75.2749 -0.00359092 71.0337 75.3505 1 2694 2346 -14.015 -35.8312 -17.415 1.24473e-05 0.00180531 
0 70.3826 76.4455 -0.00359092 71.0337 75.3505 1 2713 2346 17.8395 9.21316 5.96848 1.0529e-05 0.0011947 
0 74.5672 75.8661 -0.00359092 71.0337 75.3505 1 2701 2346 0.374959 0.364555 -0.577931 1.57241e-06 0.000129308 
0 70.5984 76.1272 -0.00359092 71.0337 75.3505 1 2689 2346 -9.84544 25.067 15.304 1.16726e-05 0.00146662 
0 0 0 -0.591861 20.4604 5.02089 0 950 2319 -0.113015 0.111867 -0.391961 1.31338e-06 0.000107399 
0 61.8343 43.7128 -3.20341e-05 62.3683 42.9514 1 92 303 -0.00847521 0.00261385 -0.00397085 8.18226e-08 6.52187e-06 
0 61.7895 43.8053 -3.20341e-05 62.3683 42.9514 1 91 303 -0.00948308 0.0039917 -0.0029835 9.0692e-08 7.23011e-06 
0 60.7923 45.2296 -3.20341e-05 62.3683 42.9514 1 63 303 -0.0902669 0.119378 -0.00646262 5.13133e-07 4.12595e-05 
0 60.2198 46.1208 -3.20341e-05 62.3683 42.9514 1 85 303 -0.0117141 0.0400688 0.00460838 2.2484e-07 1.7973e-05 
0 60.289 46.0662 -3.20341e-05 62.3683 42.9514 1 86 303 -0.00740284 0.0194705 0.00184227 1.41474e-07 1.129e-05 
0 71.8831 46.0999 -2.7118e-06 68.3377 46.2532 1 137 753 -0.0022854 0.00279548 -0.00595448 6.80901e-08 5.4258e-06 
0 71.8693 46.1126 -2.7118e-06 68.3377 46.2532 1 138 753 -0.00227324 0.00275851 -0.0058181 6.72065e-08 5.35529e-06 
0 72.1732 46.4357 -2.7118e-06 68.3377 46.2532 1 134 753 0.0117078 0.112513 -0.257479 8.11011e-07 6.56145e-05 
0 72.1215 46.395 -2.7118e-06 68.3377 46.2532 1 136 753 0.0169023 -0.224656 -0.511664 1.23664e-06 0.000100957 
0 71.3431 47.6924 -2.7118e-06 68.3377 46.2532 1 2650 753 0.0847136 0.185718 -0.142627 7.29036e-07 5.88816e-05 
0 70.8685 47.8984 -2.7118e-06 68.3377 46.2532 1 125 753 -0.103997 0.285766 -0.256754 9.91116e-07 8.04902e-05 
0 71.2536 47.67 -2.7118e-06 68.3377 46.2532 1 123 753 -0.053394 0.237809 -0.324735 1.00413e-06 8.15695e-05 
0 70.7838 48.0707 -2.7118e-06 68.3377 46.2532 1 2649 753 0.0925685 0.301364 -0.411767 1.1777e-06 9.60234e-05 
0 72.1179 46.8074 -2.7118e-06 68.3377 46.2532 1 120 753 0.0448433 -0.104279 -0.380295 9.89297e-07 8.03394e-05 
0 70.8851 47.8921 -2.7118e-06 68.3377 46.2532 1 124 753 -0.101235 0.283594 -0.260612 9.9151e-07 8.05228e-05 
0 70.7691 48.5924 -2.7118e-06 68.3377 46.2532 1 126 753 -0.0219449 0.105314 -0.0552548 4.53007e-07 3.63801e-05 
0 70.7239 48.4287 -2.7118e-06 68.3377 46.2532 1 2647 753 0.0542126 0.263279 -0.378244 1.09549e-06 8.91637e-05 
0 72.1596 46.5036 -2.7118e-06 68.3377 46.2532 1 2707 753 0.0298834 0.118383 -0.248581 8.01699e-07 6.48485e-05 
0 69.9562 49.8119 -2.7118e-06 68.3377 46.2532 1 2674 753 0.0157082 0.0646813 -0.065075 3.81028e-07 3.05547e-05 
0 69.8947 49.7706 -2.7118e-06 68.3377 46.2532 1 2672 753 -0.00069322 0.210917 -0.251965 8.744e-07 7.0837e-05 
0 69.6173 49.9287 -2.7118e-06 68.3377 46.2532 1 2673 753 -0.00263196 0.149581 -0.153552 6.60692e-07 5.3286e-05 
0 70.1783 49.6576 -2.7118e-06 68.3377 46.2532 1 2644 753 -0.0080425 0.135249 -0.185426 6.91266e-07 5.57872e-05 
0 71.3707 47.7665 -2.7118e-06 68.3377 46.2532 1 2721 753 0.0617442 0.181556 -0.148897 7.17e-07 5.7895e-05 
0 71.3859 48.0656 -2.7118e-06 68.3377 46.2532 1 2722 753 0.0262456 0.121924 -0.089687 5.3048e-07 4.26694e-05 
0 70.7978 48.6117 -2.7118e-06 68.3377 46.2532 1 2702 753 -0.0202195 0.104423 -0.0545335 4.49514e-07 3.60969e-05 
0 71.0813 48.515 -2.7118e-06 68.3377 46.2532 1 2703 753 -0.0144231 0.0654698 -0.0333938 3.29961e-07 2.64321e-05 
0 86.192 66.4488 -0.0939329 87.7448 65.849 1 2703 1116 -6.65182 7.17673 9.31536 8.36251e-06 0.000843224 
0 85.3985 67.6194 -0.0939329 87.7448 65.849 1 2723 1116 -1.25255 1.58988 8.7821 6.78968e-06 0.000643985 
0 70.2459 49.6999 -2.7118e-06 68.3377 46.2532 1 2724 753 0.00137579 0.061039 -0.00330759 2.88458e-07 2.3088e-05 
0 85.3945 67.6434 -0.0939329 87.7448 65.849 1 2724 1116 -1.21241 1.60338 8.56037 6.69995e-06 0.000633493 
0 69.999 49.784 -2.7118e-06 68.3377 46.2532 1 2726 753 0.0187463 0.0652545 -0.0609157 3.75944e-07 3.01438e-05 
0 87.7285 65.7037 -0.0939329 87.7448 65.849 1 2698 1116 -15.2411 -30.0909 -19.43 1.23705e-05 0.00175032 
0 86.9349 66.8743 -0.0939329 87.7448 65.849 1 2717 1116 19.0257 13.1748 1.54473 1.07977e-05 0.00124968 
0 88.9019 66.9258 -0.0939329 87.7448 65.849 1 2685 1116 6.97401 5.29696 -20.1914 1.04099e-05 0.00117149 
0 85.3914 67.6659 -0.0939329 87.7448 65.849 1 2725 1116 -1.17257 1.61611 8.35676 6.61623e-06 0.000623778 
0 87.6655 68.7497 -0.0939329 87.7448 65.849 1 2686 1116 -0.433462 1.87498 0.161692 2.78261e-06 0.000235271 
0 39.8541 -65.0479 -0.0051326 41.9862 -63.3196 1 1856 405 0.0377637 -0.0154498 0.00510453 2.19983e-07 1.7583e-05 
0 40.0788 -64.8956 -0.0051326 41.9862 -63.3196 1 1851 405 0.0683844 -0.0137621 0.00815949 3.14471e-07 2.51834e-05 
0 38.8756 -65.3764 -0.0051326 41.9862 -63.3196 1 514 405 0.0891525 -0.0228115 0.345061 9.11535e-07 7.39031e-05 
0 38.7662 -65.5409 -0.0051326 41.9862 -63.3196 1 513 405 0.0422226 -0.0260254 0.142894 5.25173e-07 4.2238e-05 
0 39.2392 -65.2216 -0.0051326 41.9862 -63.3196 1 515 405 0.107198 -0.0418189 0.301848 8.64029e-07 6.99816e-05 
0 39.3306 -65.1595 -0.0051326 41.9862 -63.3196 1 516 405 0.110522 -0.0526921 0.314342 8.88842e-07 7.20288e-05 
0 39.8696 -64.5704 -0.0051326 41.9862 -63.3196 1 476 405 0.102878 0.0167294 0.0484031 4.32006e-07 3.46786e-05 
0 0 0 2.63075e-09 -1.36692e-09 -2.27557e-13 0 885 23 -0.159274 -0.674731 -28.6401 1.17812e-05 0.00150007 
0 0 0 -1.24989e-09 4.60531e-09 1.97244e-12 0 885 765 -0.918077 -0.249082 -28.7466 1.17928e-05 0.00150378 
0 0 0 -2.94513e-09 3.66682e-09 1.57269e-11 0 885 1484 0.175758 0.758752 -28.5384 1.177e-05 0.00149651 
0 0 0 3.20503e-09 -4.89246e-10 -1.54486e-11 0 885 124 -0.39068 -1.01055 -28.7381 1.17919e-05 0.00150349 
0 0 0 -1.63373e-31 6.10143e-20 -4.48961e-12 0 885 1052 6.72489e-31 8.21841e-05 -28.6382 1.1781e-05 0.0015 
0 0 0 4.03489e-75 -1.60662e-20 6.7369e-12 0 885 1441 1.96695e-73 8.21841e-05 -28.6382 1.1781e-05 0.0015 
0 0 0 -2.69773e-178 4.17362e-20 4.82652e-15 0 885 173 -1.99135e-175 8.21841e-05 -28.6382 1.1781e-05 0.0015 
0 0 0 -4.09159e-230 1.01332e-19 1.69047e-12 0 885 874 6.0273e-224 8.21841e-05 -28.6382 1.1781e-05 0.0015 
0 0 0 -2.99945e-15 1.13691e-15 -1.35702e-13 0 885 281 1.03116 -0.260957 -28.4308 1.1758e-05 0.00149275 
0 0 0 -3.22101e-15 -3.14595e-15 -1.35547e-13 0 885 2235 -1.27773 0.635502 -28.8168 1.18004e-05 0.00150623 
0 0 0 -0.00971716 -0.00774013 -0.0100232 0 885 1154 -0.0131643 0.0145574 -28.6436 1.1782e-05 0.00150031 
0 0 0 -4.28646e-16 1.14238e-15 -1.3556e-13 0 885 171 -0.359137 -0.293671 -28.6674 1.17842e-05 0.00150102 
0 0 0 2.63075e-09 -1.36692e-09 -2.27557e-13 0 850 23 -0.158544 -0.67164 28.6363 1.17808e-05 0.00149993 
0 0 0 -1.24989e-09 4.60531e-09 1.97244e-12 0 850 765 -0.622257 -0.168797 28.5299 1.1769e-05 0.00149622 
0 0 0 -2.94513e-09 3.66682e-09 1.57269e-11 0 850 1484 0.275622 1.01807 28.7381 1.17919e-05 0.00150349 
0 0 0 3.20503e-09 -4.89246e-10 -1.54486e-11 0 850 124 -0.290444 -0.751255 28.5384 1.177e-05 0.00149651 
0 0 0 -1.63373e-31 6.10143e-20 -4.48961e-12 0 850 1052 -5.82342e-31 8.21841e-05 28.6382 1.1781e-05 0.0015 
0 0 0 4.03489e-75 -1.60662e-20 6.7369e-12 0 850 1441 -1.94565e-73 8.21841e-05 28.6382 1.1781e-05 0.0015 
0 0 0 -2.69773e-178 4.17362e-20 4.82652e-15 0 850 173 1.99427e-175 8.21841e-05 28.6382 1.1781e-05 0.0015 
0 0 0 -4.09159e-230 1.01332e-19 1.69047e-12 0 850 874 -6.02733e-224 8.21841e-05 28.6382 1.1781e-05 0.0015 
0 0 0 -2.99945e-15 1.13691e-15 -1.35702e-13 0 850 281 1.56952 -0.397243 28.846 1.18036e-05 0.00150725 
0 0 0 -3.22101e-15 -3.14595e-15 -1.35547e-13 0 850 2235 -0.673492 0.554239 28.46 1.17613e-05 0.00149377 
0 0 0 -4.28646e-16 1.14238e-15 -1.3556e-13 0 850 171 -0.290312 -0.237376 28.609 1.17778e-05 0.00149898 
0 0 0 -0.00971716 -0.00774013 -0.0100232 0 851 1154 -0.00671807 -0.0027162 28.6328 1.178e-05 0.00149969 
0 0 0 0.029558 -0.254187 -0.0601827 0 895 2127 -0.000417635 0.000414124 0.0011763 4.71845e-08 3.75835e-06 
0 0 0 -0.0976288 -0.30531 -0.00471742 0 895 1563 0.000153264 0.000699108 -0.00143142 2.93752e-08 2.33897e-06 
0 0 0 -0.0167458 -0.155374 0.014324 0 895 1998 -0.00081047 0.00320908 -0.00661968 6.19428e-08 4.93534e-06 
0 0 0 0.0311168 -0.162795 0.0215453 0 895 337 -0.00447151 0.00713718 -0.00643308 5.60467e-08 4.46504e-06 
0 0 0 0.0396667 -0.113017 -0.00747923 0 895 1011 -0.000291668 0.002091 -0.00894371 9.10615e-08 7.25962e-06 
0 0 0 -0.0455296 -0.0289849 -0.0385682 0 853 513 0.0161399 -0.088324 -0.00570891 4.07824e-07 3.27213e-05 
0 0 0 -0.0563089 0.0573719 0.0329403 0 853 2243 0.00261855 -0.121071 0.0144497 4.66257e-07 3.74543e-05 
0 0 0 -0.139439 -0.00555782 0.182838 0 853 1354 -0.000637995 -0.00638347 -0.0181997 7.26974e-08 5.79346e-06 
0 0 0 -0.0423411 0.0114644 0.125679 0 853 1257 0.00044217 -0.00186621 -0.00082169 2.16882e-08 1.72664e-06 
0 0 0 0.0116133 0.0200323 0.207234 0 853 2262 -0.00759465 -0.0306129 -0.00471731 1.86633e-07 1.49073e-05 
0 0 0 0.00916599 0.0165726 0.0364634 0 853 66 0.0025404 -0.0106741 0.000859293 8.78764e-08 7.00525e-06 
0 0 0 0.0568575 0.0142499 0.234366 0 853 1823 1.56336e-05 -0.00312147 -0.0291417 3.28959e-08 2.61949e-06 
0 0 0 0.107774 -0.0565811 -0.238497 0 853 2157 -0.0102229 -0.148122 -0.0439105 5.78082e-07 4.65439e-05 
0 0 0 0.0761393 0.0182474 0.393674 0 853 2302 0.00848278 -0.03046 -0.0159146 1.86834e-07 1.49234e-05 
0 0 0 0.00641981 -0.0170773 0.213985 0 853 1273 9.75275e-05 0.000573177 -0.000269483 9.81466e-09 7.81178e-07 
0 0 0 0.00636988 -0.0188807 0.228319 0 853 1195 8.57632e-05 0.000701143 -0.00308457 8.44322e-09 6.72003e-07 
0 0 0 0.305493 0.186206 0.101082 0 853 1965 -0.0273502 -0.0291523 0.0224833 1.01175e-07 8.06749e-06 
0 0 0 0.0106913 0.0687921 0.392458 0 853 1433 -0.0134057 -0.0685539 -0.0115897 3.06206e-07 2.45173e-05 
0 0 0 -0.170276 0.0646977 0.0122668 0 853 1992 0.0141507 -0.0817149 -0.00235185 3.50045e-07 2.80524e-05 
0 0 0 0.0336021 -0.00535426 0.291106 0 853 1636 -0.0128832 -0.00185739 -0.023601 3.45513e-08 2.7514e-06 
0 0 0 0.00683612 -0.00689775 0.144637 0 853 1454 0.00033806 -0.00105925 -0.000407695 2.67641e-08 2.13096e-06 
0 0 0 0.133311 0.0250895 -0.146588 0 853 1491 -0.00967287 -0.0153034 -0.00140168 1.10207e-07 8.78934e-06 
0 0 0 0.0392126 0.00866446 0.32007 0 853 1639 -5.84751e-05 -0.00660845 -0.00330371 6.53953e-08 5.21078e-06 
0 0 0 0.0257962 -0.0211586 -0.0201763 0 853 1936 3.80284e-05 0.000680776 0.00052662 1.33922e-08 1.066e-06 
0 0 0 0.0256261 -0.00947057 0.129199 0 853 2092 0.000493758 -0.000114336 -5.03109e-05 1.56185e-08 1.24326e-06 
0 0 0 -0.0219342 0.0240704 0.138305 0 853 1063 0.00103283 -0.00549364 -0.00254525 4.71435e-08 3.75508e-06 
0 0 0 0.071491 0.0390556 0.0670503 0 853 299 -0.0116466 -0.129079 0.00847682 4.94437e-07 3.97409e-05 
0 0 0 0.111596 0.11986 0.151732 0 853 19 -0.00231525 -0.0234166 -0.0114771 1.04351e-07 8.32132e-06 
0 0 0 0.0893116 -0.00956899 0.0945442 0 853 1801 -0.000126599 -0.00045542 1.05794e-06 2.11299e-08 1.68217e-06 
0 0 0 1.66561e-11 1.5391e-12 1.66483e-12 0 884 331 -1.97594e-12 8.21841e-05 -28.6382 1.1781e-05 0.0015 
0 0 0 -0.0455296 -0.0289849 -0.0385682 0 884 513 0.00779637 -0.00036482 0.0156098 1.04627e-07 8.34333e-06 
0 0 0 0.0962539 0.419755 -0.0991332 0 884 975 0.0317053 -0.0290033 0.0345757 1.66117e-07 1.32631e-05 
0 0 0 0.0730665 0.484954 0.239412 0 884 1362 -0.00418662 0.0150472 -0.013408 1.39535e-08 1.1107e-06 
0 0 0 0.020529 -0.0102162 0.282609 0 884 1364 -0.00700762 -0.0012435 -0.0187473 5.48283e-08 4.36787e-06 
0 0 0 0.0524165 0.406472 -0.0321704 0 884 1891 0.00628611 -0.0399025 0.0194474 1.2845e-07 1.0248e-05 
0 0 0 -0.0545532 0.16312 0.00383066 0 884 1400 0.0144926 -0.0182394 0.0873859 3.9496e-07 3.16808e-05 
0 0 0 0.0579751 0.515346 0.024643 0 884 967 0.0221664 -0.0432636 0.0885199 4.06662e-07 3.26272e-05 
0 0 0 -0.170276 0.0646977 0.0122668 0 884 1992 0.0104708 -0.00376558 0.000726192 2.72234e-08 2.16754e-06 
0 0 0 0.0340162 0.240987 0.0977315 0 884 1679 -0.0135043 -0.0257869 0.0143875 1.72007e-07 1.37351e-05 
0 0 0 0.216356 0.284227 0.172553 0 884 267 -0.0308595 -0.0172489 0.0861993 4.59142e-07 3.68773e-05 
0 0 0 0.116309 -0.0509777 -0.0317064 0 885 227 -0.00268538 0.0266812 0.150097 5.50756e-07 4.43188e-05 
0 0 0 -0.240526 0.0736905 0.0244789 0 885 1492 0.00138876 -0.000368396 0.00287358 5.81627e-08 4.63381e-06 
0 0 0 1.66561e-11 1.5391e-12 1.66483e-12 0 850 331 1.63672e-13 8.21841e-05 28.6382 1.1781e-05 0.0015 
0 0 0 0.0497444 0.0258793 0.213939 0 852 1897 0.000165482 -0.00353355 -0.0122817 2.88919e-08 2.30047e-06 
0 0 0 0.0381504 0.00988896 0.147895 0 852 768 -0.00172153 -0.004912 -0.00175164 5.16221e-08 4.11218e-06 
0 0 0 -0.00335792 -0.181751 0.0203122 0 894 783 0.00391101 0.00655501 -0.0152662 1.12592e-07 8.97998e-06 
0 0 0 0.00971304 -0.124624 0.00391038 0 894 1585 0.000189235 0.00162871 -0.0027773 3.69269e-08 2.94071e-06 
0 0 0 -0.0123788 -0.134614 0.000189401 0 894 1437 -0.00256188 -0.00102616 -0.00898526 8.67713e-08 6.917e-06 
0 0 0 -0.019671 -0.169808 0.00265666 0 894 1908 0.00137279 0.000872419 -0.00325309 4.23002e-08 3.36898e-06 
0 0 0 0.0197333 -0.0393886 -0.00790188 0 894 1995 -0.000577834 0.000833622 -0.000156546 1.47039e-08 1.17044e-06 
0 0 0 -0.00576577 -0.01597 0.00062696 0 894 16 -0.00163006 0.000236854 -0.0103355 9.50037e-08 7.5745e-06 
0 0 0 -0.0445298 -0.13445 -0.0198978 0 894 567 0.00073337 0.000290192 -0.00121206 3.91776e-08 3.12009e-06 
0 0 0 -0.00326997 0.0329991 0.00376528 0 894 1760 0.000167632 0.000168156 -0.000474876 8.61547e-09 6.85715e-07 
0 0 0 1.42813e-66 4.97667e-23 -2.24229e-12 0 894 272 -7.29856e-65 8.21841e-05 28.6382 1.1781e-05 0.0015 
0 0 0 0.00622964 0.00306681 0.123581 0 852 1332 -0.00282995 -0.000440265 -0.00557398 8.64459e-09 6.88033e-07 
0 0 0 -0.0359911 -0.000738334 0.120725 0 852 1438 2.62269e-05 -7.91147e-05 -2.96131e-05 4.67654e-09 3.72182e-07 
0 0 0 -0.0602353 -0.00769632 0.233745 0 852 749 0.000139412 -0.00221198 -0.00109717 3.99426e-08 3.18106e-06 
0 0 0 0.0321786 0.00202742 0.0858483 0 852 1798 -0.000790234 -0.00228644 -0.000826124 3.34095e-08 2.66041e-06 
0 0 0 0.0132225 -0.0192236 0.217568 0 852 1037 0.00181599 -0.000398795 -0.00131427 2.9224e-08 2.32693e-06 
0 0 0 -0.034606 0.00259726 0.112892 0 852 2213 -0.000894097 -0.00188315 -0.000295217 2.8684e-08 2.2839e-06 
0 0 0 1.42813e-66 4.97667e-23 -2.24229e-12 0 849 272 7.36514e-65 8.21841e-05 -28.6382 1.1781e-05 0.0015 
0 0 0 -0.0427262 -0.233911 0.0116925 0 895 2139 -0.00208132 0.00869647 -0.00382863 4.1228e-08 3.28351e-06 
0 0 0 0.0733662 -0.148273 0.0598346 0 895 1880 0.00348157 0.0113061 -0.0236601 1.35311e-07 1.07968e-05 
0 0 0 0.0493465 -0.144109 -0.00560598 0 895 1620 -8.66884e-05 0.000249269 -0.000820369 2.2601e-08 1.79934e-06 
0 0 0 0.0655812 0.0111409 0.0909116 0 853 941 0.000541517 -0.00500719 -0.000791916 5.15716e-08 4.10816e-06 
0 0 0 -8.11325 -10.6036 32.6789 0 933 1520 -0.0217877 -0.199067 0.0155912 1.33643e-07 1.06634e-05 
0 0 0 4.92742 -20.3802 25.4193 0 929 2065 -0.00199842 -0.170545 0.0282291 7.16262e-07 5.78345e-05 
0 0 0 -8.03728 -27.359 56.6454 0 932 792 -1.1931 2.20318 0.930406 2.30635e-06 0.000192829 
0 0 0 -7.34624 18.3034 45.3065 0 941 1391 -0.203108 1.47632 -0.624045 2.76202e-06 0.000233415 
0 0 0 1.20491 10.8645 25.4351 0 941 92 -0.0521189 0.581587 -0.231194 1.68903e-06 0.000139257 
0 0 0 -5.1964 -31.6544 17.9201 0 925 2010 -0.00480488 -0.0663131 -0.0650511 5.14148e-09 4.09188e-07 
0 0 0 -5.4584 -50.087 16.7492 0 923 2318 0.0985701 0.0157587 0.221143 1.49793e-06 0.000122983 
0 0 0 0.668064 -38.3111 2.73902 0 921 2314 -0.0493656 0.299492 1.44761 2.2823e-06 0.000190713 
0 0 0 -2.75101 22.5871 0.672744 0 953 2224 -0.000401816 0.00153052 -0.00256661 7.36421e-07 5.94872e-05 
0 0 0 -8.04099e-07 2.38194e-12 3.15414e-12 0 961 428 -2.13183e-15 9.45454 12.5197 9.45155e-06 0.00100427 
0 0 0 -8.04099e-07 2.38194e-12 3.15414e-12 0 753 428 2.19996e-15 -9.45437 -12.5197 9.45152e-06 0.00100427 
0 47.0839 -71.9438 0.00595759 46.4678 -68.1298 1 526 1181 -0.00666861 -0.124926 -0.0871324 5.28447e-07 4.25041e-05 
0 47.1023 -72 0.00595759 46.4678 -68.1298 1 527 1181 0.00232783 -0.0918392 -0.0648744 4.32646e-07 3.47304e-05 
0 47.4508 -71.6215 0.00595759 46.4678 -68.1298 1 541 1181 -0.0153964 -0.307818 -0.227218 9.66454e-07 7.84465e-05 
0 47.9144 -71.1917 0.00595759 46.4678 -68.1298 1 523 1181 -0.0973407 -0.17156 -0.222416 8.18401e-07 6.62226e-05 
0 49.8782 -69.8336 0.00595759 46.4678 -68.1298 1 1829 1181 -0.0300986 -0.405136 -0.304216 1.16084e-06 9.46149e-05 
0 50.0262 -68.3631 0.00595759 46.4678 -68.1298 1 1835 1181 -0.019023 -0.0641644 -0.139862 5.31866e-07 4.27821e-05 
0 50.0177 -68.3583 0.00595759 46.4678 -68.1298 1 1834 1181 -0.0274418 -0.0693598 -0.136112 5.32221e-07 4.2811e-05 
0 49.9309 -68.9979 0.00595759 46.4678 -68.1298 1 1887 1181 -0.0155105 0.00845645 -0.0302478 1.97134e-07 1.57494e-05 
0 50.4383 -68.1002 0.00595759 46.4678 -68.1298 1 1837 1181 -0.00862445 0.00787872 -0.0206116 1.5195e-07 1.21286e-05 
0 46.9872 -72.0797 0.00595759 46.4678 -68.1298 1 530 1181 0.00120588 -0.0130496 -0.00874619 1.18803e-07 9.47648e-06 
0 49.3543 -70.3531 0.00595759 46.4678 -68.1298 1 1826 1181 -0.0186483 -0.122195 -0.25894 8.00607e-07 6.47587e-05 
0 49.6922 -70.0593 0.00595759 46.4678 -68.1298 1 1828 1181 -0.0296149 -0.446355 -0.317433 1.22142e-06 9.96817e-05 
0 49.214 -70.3779 0.00595759 46.4678 -68.1298 1 1842 1181 0.0433731 -0.0659656 -0.236014 7.29464e-07 5.89167e-05 
0 49.719 -70.0514 0.00595759 46.4678 -68.1298 1 1831 1181 -0.0286708 -0.442705 -0.308662 1.20965e-06 9.86959e-05 
0 49.8557 -69.8873 0.00595759 46.4678 -68.1298 1 1830 1181 -0.028602 -0.403221 -0.294538 1.1499e-06 9.37012e-05 
0 47.9814 -71.6492 0.00595759 46.4678 -68.1298 1 1871 1181 -0.0122273 -0.10986 -0.126246 5.62459e-07 4.52714e-05 
0 48.239 -71.3801 0.00595759 46.4678 -68.1298 1 1870 1181 -0.0224841 -0.0719451 -0.100378 4.64017e-07 3.72726e-05 
0 48.2709 -71.2412 0.00595759 46.4678 -68.1298 1 1869 1181 -0.0483808 -0.143464 -0.206467 7.42076e-07 5.9951e-05 
0 48.3876 -70.7326 0.00595759 46.4678 -68.1298 1 1868 1181 -0.0524373 -0.396557 -0.343527 1.18974e-06 9.70304e-05 
0 49.0315 -71.0032 0.00595759 46.4678 -68.1298 1 1892 1181 0.00863319 -0.0197628 -0.0500652 2.681e-07 2.14497e-05 
0 49.3375 -70.7299 0.00595759 46.4678 -68.1298 1 1893 1181 -0.0836821 -0.177994 -0.145108 7.20307e-07 5.8166e-05 
0 49.7437 -69.8133 0.00595759 46.4678 -68.1298 1 1885 1181 -0.0465456 -0.505262 -0.388072 1.34759e-06 0.000110278 
0 47.6754 -71.9225 0.00595759 46.4678 -68.1298 1 1873 1181 0.000236799 -0.0102153 -0.00982645 1.1027e-07 8.79435e-06 
0 0 0 -5.14868 -14.5588 -21.6187 0 897 2252 0.0332024 -0.0683049 0.0262758 8.71794e-07 7.0622e-05 
0 0 0 0.0488224 -2.36865 -0.793442 0 886 1827 -0.115573 0.0502747 -0.0284906 4.54596e-07 3.65088e-05 
0 0 0 -0.0852513 -1.26789 0.0387962 0 885 1808 0.000115543 -0.000423066 0.00251658 6.52992e-08 5.20311e-06 
0 0 0 9.0805e-07 -1.3775e-07 7.99265e-08 0 963 716 -0.819939 4.72051 13.3875 8.78196e-06 0.000902451 
0 0 0 9.0805e-07 -1.3775e-07 7.99265e-08 0 751 716 0.62398 -5.17465 -8.99292 7.56274e-06 0.000737975 
0 0 0 9.0805e-07 -1.3775e-07 7.99265e-08 0 752 716 0.19596 0.454298 -4.39457 4.71858e-06 0.000419484 
0 0 0 -0.00575866 0.0673527 0.0843551 0 889 1042 -0.00596261 -0.00204716 0.0104065 6.97936e-08 5.56173e-06 
0 0 0 -0.00253156 -0.0575088 0.110654 0 888 889 -0.000171863 0.0010941 0.000517676 9.11916e-09 7.25812e-07 
0 0 0 -0.0695062 -0.0492598 -0.0406297 0 888 848 -0.0994625 -0.0333831 -0.0550628 4.55829e-07 3.66088e-05 
0 0 0 -0.00488622 -0.0568475 0.0782974 0 888 1489 -0.00864062 0.000255367 -0.00431276 8.75728e-08 6.98101e-06 
0 0 0 -0.00949755 -0.060751 0.068536 0 888 551 -0.00278383 0.000261694 -0.00136709 4.66802e-08 3.71815e-06 
0 0 0 -0.00271351 0.00393941 0.119853 0 888 1898 -0.0162639 -0.00522351 -0.000424902 1.30392e-07 1.04033e-05 
0 0 0 0.0191618 -0.106701 0.256779 0 888 2294 -0.00742069 0.0120084 0.0042796 6.47539e-08 5.15961e-06 