ITEM: TIMESTEP
18850000
ITEM: NUMBER OF ENTRIES
532
ITEM: BOX BOUNDS ff ff ff
-0.01 0.45
-0.15 0.15
-0.08 0.1
ITEM: ENTRIES c_pwc[1] c_pwc[2] c_pwc[3] c_pwc[4] c_pwc[5] c_pwc[6] c_pwc[7] c_pwc[8] c_pwc[9] c_pwc[10] c_pwc[11] c_pwc[12] c_pwc[13] c_pwc[14] 
0 0 0 1.07605 2.06722 6.08941 0 940 1896 0.00980556 0.165938 -0.0675395 5.3571e-07 4.30947e-05 
0 0 0 -11.0848 18.5088 8.40427 0 948 2067 0.408954 0.287235 -0.796488 1.91807e-06 0.000158951 
0 0 0 -8.66161 30.6759 14.9764 0 948 890 -0.257224 0.193565 -0.486503 1.34782e-06 0.000110297 
0 0 0 -13.5075 25.4675 16.8434 0 946 929 -0.0255771 0.0511591 -0.0388846 1.05549e-06 8.5835e-05 
0 0 0 -2.06011 25.986 -2.99214 0 954 1980 0.00540923 -0.0705479 -0.113934 7.03165e-07 5.67615e-05 
0 0 0 2.22525e-308 -1.21775e-19 -1.11877e-12 0 850 393 1.77586e-305 8.21841e-05 28.6382 1.1781e-05 0.0015 
0 0 0 -9.47821e-15 5.81523e-15 6.17499e-12 0 850 1145 4.14082e-15 8.21841e-05 28.6382 1.1781e-05 0.0015 
0 0 0 2.65627e-07 -9.79499e-07 2.43955e-14 0 850 465 0.917876 0.248999 28.747 1.17929e-05 0.0015038 
0 0 0 -1.43582e-07 -1.63042e-07 1.20609e-09 0 850 665 0.308459 0.817841 28.7438 1.17925e-05 0.00150369 
0 0 0 2.22525e-308 -1.21775e-19 -1.11877e-12 0 885 393 -1.77752e-305 8.21841e-05 -28.6382 1.1781e-05 0.0015 
0 0 0 2.65627e-07 -9.79499e-07 2.43955e-14 0 885 465 0.620776 0.168429 -28.5295 1.1769e-05 0.0014962 
0 0 0 -1.43582e-07 -1.63042e-07 1.20609e-09 0 885 665 0.239018 0.521647 -28.5326 1.17693e-05 0.00149631 
0 0 0 -9.47821e-15 5.81523e-15 6.17499e-12 0 884 1145 -1.87558e-15 8.21841e-05 -28.6382 1.1781e-05 0.0015 
0 0 0 -0.0620734 -0.0289656 -0.00775133 0 894 1053 -5.47861e-05 6.14554e-05 0.000247712 3.52873e-09 2.80827e-07 
0 0 0 0.289674 -0.188217 0.1305 0 884 2075 -0.00682925 0.00526265 0.0172434 2.02742e-07 1.61993e-05 
0 0 0 -0.312108 0.0965915 0.0357812 0 884 704 0.0120171 -0.0243873 0.0543747 3.02974e-07 2.4257e-05 
0 0 0 -0.0402903 0.0347873 -0.00247745 0 884 1958 0.00713683 -0.0134966 0.00151527 2.45681e-08 1.95602e-06 
0 0 0 0.490501 0.158837 0.0281791 0 884 592 -0.0221712 -0.00480792 -0.000475306 2.56929e-08 2.04562e-06 
0 0 0 0.033401 0.0279559 0.0451821 0 884 2115 0.00817152 0.0115777 0.0334141 2.29478e-07 1.83454e-05 
0 0 0 0.289674 -0.188217 0.1305 0 854 2075 -0.0118902 -0.00391795 -0.00447146 1.38855e-07 1.10805e-05 
0 0 0 -0.0405566 -0.0726384 -0.0333066 0 854 2112 0.0398663 0.0473949 -0.0217507 2.15222e-07 1.72008e-05 
0 0 0 -0.156587 0.0365572 0.11459 0 854 2318 0.0677412 -0.0270946 -0.0080265 2.66719e-07 2.13387e-05 
0 0 0 0.00433821 0.0781485 0.14623 0 854 29 0.0565361 -0.0280921 -0.00314921 2.96765e-07 2.37569e-05 
0 0 0 0.0138167 -0.0166699 0.0314509 0 854 1445 0.0119496 0.00243958 0.000884575 1.12851e-07 9.00068e-06 
0 0 0 0.00423326 -0.00291336 0.09258 0 854 1602 0.00393141 0.00187143 0.000601459 5.30011e-08 4.22215e-06 
0 0 0 -0.00671594 0.0255793 0.190169 0 854 983 0.00588924 -0.00189925 -0.00225026 6.13023e-08 4.88425e-06 
0 0 0 0.0203548 -0.148841 0.00120172 0 854 1194 0.00176559 3.14569e-05 2.21616e-05 4.51382e-08 3.59521e-06 
0 0 0 0.016113 -0.0205301 0.0505291 0 854 197 0.0037581 -0.000496231 -0.00181234 5.96874e-08 4.75542e-06 
0 0 0 -0.0401245 0.0450839 -0.103618 0 854 651 0.00486066 -6.06168e-06 0.00243032 3.1751e-08 2.52826e-06 
0 0 0 0.00723468 0.0137362 0.0533018 0 854 2085 0.00254597 0.00079628 0.00018605 4.28266e-08 3.41094e-06 
0 0 0 -0.0625895 0.0321191 0.0492004 0 854 713 0.013607 -0.00631594 0.00252918 8.0063e-08 6.38139e-06 
0 0 0 0.00377336 -0.0233473 0.182603 0 854 948 0.000331395 -0.00215357 -0.000831699 1.35154e-08 1.07581e-06 
0 0 0 -0.0155058 -0.020028 0.12039 0 854 2202 0.00176967 5.63098e-05 -0.000883043 1.75071e-08 1.39366e-06 
0 0 0 0.028936 -0.00772024 0.0608855 0 853 1654 0.00143445 -0.0203157 -0.00132073 1.53476e-07 1.22508e-05 
0 0 0 -0.0415728 0.0432897 0.114185 0 853 1418 -0.00218241 -0.0529785 -0.00170342 2.63467e-07 2.10771e-05 
0 0 0 0.0400999 -0.012765 0.0989471 0 853 210 0.0139447 -0.0495469 -0.00407981 2.75847e-07 2.2073e-05 
0 0 0 0.0280176 0.0166493 0.213575 0 853 1122 0.000268951 -0.00543661 -0.00270497 5.14383e-08 4.09752e-06 
0 0 0 0.0440099 0.00329442 0.036468 0 853 935 -0.0156081 -0.0304645 0.000400697 1.94069e-07 1.55036e-05 
0 0 0 0.0444068 0.00991843 0.116528 0 853 1592 -0.00195145 -0.0021833 -0.000418634 2.64164e-08 2.10326e-06 
0 0 0 -0.0189626 0.00390659 0.0484513 0 852 1140 0.00151675 -0.00545673 0.000962693 5.98139e-08 4.76552e-06 
0 0 0 -0.00482862 -0.0119389 -0.065419 0 852 2212 0.00114439 -0.00977244 0.000170293 9.88668e-08 7.8831e-06 
0 0 0 -0.103364 -0.119269 0.157248 0 852 168 0.000340718 0.00667178 2.71262e-05 2.28078e-08 1.81581e-06 
0 0 0 -0.0332488 -0.00625432 0.144978 0 852 962 5.96795e-06 -0.00112788 -0.00056391 2.70609e-08 2.1546e-06 
0 0 0 0.0170546 0.0133734 0.0368108 0 852 1794 -0.00279505 -0.00844319 -0.000853874 7.53341e-08 6.00391e-06 
0 0 0 0.00373135 -0.000529535 0.0335965 0 852 2216 0.00548607 -0.0142561 -0.00030043 1.18408e-07 9.44494e-06 
0 0 0 0.027891 -0.00219478 0.0662331 0 852 2021 0.00174829 -0.00207409 -0.00155517 3.43975e-08 2.73914e-06 
0 0 0 0.0435471 -0.0124956 0.0125474 0 852 294 0.00233295 -0.00825822 -0.0047552 8.96643e-08 7.14803e-06 
0 0 0 0.0267018 -0.00457527 0.0552369 0 852 1877 0.000685245 -0.00571512 0.000325247 6.7221e-08 5.35645e-06 
0 0 0 0.00372202 -0.090766 -0.00772751 0 894 620 6.31445e-06 0.000822731 -0.00164551 3.41446e-08 2.71899e-06 
0 0 0 0.0544509 0.065319 -0.0112489 0 894 882 -0.000402695 0.000398816 -0.00263159 4.65529e-08 3.708e-06 
0 0 0 -0.0214589 0.0926436 -0.00747954 0 894 1685 -5.18351e-05 3.03432e-05 -0.00175071 3.50724e-08 2.79292e-06 
0 0 0 -0.0363831 -0.036098 -0.00738938 0 894 677 -1.0676e-05 0.000137278 -0.000834482 2.43498e-08 1.93864e-06 
0 0 0 -0.0068349 -0.0509712 -0.00266722 0 894 1474 -0.000379403 -2.98993e-05 -0.000483912 1.49901e-08 1.19323e-06 
0 0 0 0.031964 -0.0546115 -0.00189299 0 894 346 0.00443665 0.00140271 -0.0124827 1.09192e-07 8.70815e-06 
0 0 0 -0.00226251 -0.0185968 -3.75188e-05 0 894 1386 -9.98396e-05 -0.00010169 -0.00102874 2.05452e-08 1.6356e-06 
0 0 0 0.0151944 -0.0496041 -0.00806741 0 894 854 0.000608905 0.000797651 -0.00163343 3.42817e-08 2.72992e-06 
0 0 0 0.00697748 -0.0142059 -0.00739844 0 894 2057 0.000466459 -0.000425051 -0.00343255 5.09453e-08 4.05822e-06 
0 0 0 0.0223638 -0.0352366 0.00342919 0 894 2191 -0.00404289 0.000133675 -0.0257221 1.73156e-07 1.38271e-05 
0 0 0 0.0863008 -0.0221367 -0.000696973 0 852 953 0.00283476 -0.00964961 0.00102272 1.04084e-07 8.29998e-06 
0 0 0 0.0665069 0.0025883 0.0465776 0 852 1886 -0.00126259 -0.0163044 -0.00392837 1.27758e-07 1.01926e-05 
0 0 0 0.0199007 -0.0115223 0.0453746 0 852 1779 0.00354895 -0.00802939 -0.000715695 8.75894e-08 6.98233e-06 
0 0 0 0.0155111 -0.062979 0.0201332 0 852 1438 0.000629257 -0.0120389 5.14912e-05 1.40979e-07 1.12504e-05 
0 0 0 0.00372202 -0.090766 -0.00772751 0 855 620 0.00183849 6.15209e-07 0.000919242 3.30883e-08 2.63482e-06 
0 0 0 -0.00250342 -0.0631703 -0.00651162 0 855 802 0.000244069 -3.59051e-05 -0.000116633 5.16717e-09 4.11232e-07 
0 0 0 0.00669559 -0.0269478 0.0265218 0 855 2231 0.00383282 0.00129195 0.00035747 5.38596e-08 4.29061e-06 
0 0 0 -0.00149957 -0.0800343 0.0248317 0 855 1326 0.00153873 0.00037521 -0.00067167 2.56273e-08 2.0404e-06 
0 0 0 0.00440902 -0.0495635 -0.0131826 0 855 1816 -9.02959e-05 3.87206e-05 -2.32175e-05 4.42275e-09 3.51982e-07 
0 0 0 0.00752173 0.000201854 0.101838 0 855 2153 0.00281441 0.000411012 -0.00055864 4.55365e-08 3.62696e-06 
0 0 0 0.0082206 -0.0155888 0.00607794 0 855 921 0.00287825 0.000737049 0.000198791 4.66214e-08 3.71346e-06 
0 0 0 0.00132533 -0.0159597 0.0767629 0 854 250 0.00252138 0.00139416 0.00107351 3.82518e-08 3.0463e-06 
0 0 0 0.0102464 -0.000623463 -0.0260148 0 854 715 0.0227987 0.00108016 -0.00585375 1.66585e-07 1.33007e-05 
0 0 0 0.0112483 0.0170372 0.0410558 0 854 1596 0.0127455 -0.00172294 -0.00292891 1.15933e-07 9.24704e-06 
0 0 0 -0.000543287 -0.0751975 -0.00125596 0 854 1797 0.00707682 0.000437638 -0.0018334 7.37816e-08 5.87999e-06 
0 0 0 0.0057774 0.166634 -0.0345357 0 854 867 0.00362274 -0.00124837 0.00131249 5.14528e-08 4.09868e-06 
0 48.5138 88.2846 -0.0679887 46.1199 90.6202 1 2706 1116 -0.609803 -2.1036 -3.90575 4.55145e-06 0.000402743 
0 48.4557 88.3274 -0.0679887 46.1199 90.6202 1 2705 1116 -0.913892 -2.61598 -4.41152 4.97744e-06 0.00044577 
0 48.3942 88.375 -0.0679887 46.1199 90.6202 1 2704 1116 -1.32395 -3.28033 -4.88517 5.41944e-06 0.00049171 
0 47.1172 88.9826 -0.0679887 46.1199 90.6202 1 2722 1116 3.86832 -7.87356 -4.25009 7.06584e-06 0.000676794 
0 47.2779 89.9956 -0.0679887 46.1199 90.6202 1 2698 1116 -15.8756 -5.37393 -13.4896 1.07421e-05 0.00123797 
0 23.2964 89.7317 -0.0640364 23.9905 89.4724 1 2713 2346 20.2428 10.1921 17.8922 1.18024e-05 0.00150685 
0 24.5734 89.1241 -0.0640364 23.9905 89.4724 1 2694 2346 -20.243 -7.22229 -18.6904 1.17593e-05 0.00149315 
0 46.0008 90.6032 -0.0679887 46.1199 90.6202 1 2717 1116 14.6559 24.4038 29.262 1.23885e-05 0.00176203 
0 31.1862 69.0052 -4.43665e-05 32.0323 68.619 1 92 303 -0.00849244 0.00427349 -0.00210188 8.19423e-08 6.53143e-06 
0 31.1008 69.0622 -4.43665e-05 32.0323 68.619 1 91 303 -0.00950003 0.0049622 -0.000551936 9.08053e-08 7.23916e-06 
0 29.5197 69.7854 -4.43665e-05 32.0323 68.619 1 63 303 -0.0902619 0.106206 0.0548737 5.13113e-07 4.12578e-05 
0 28.5747 70.2641 -4.43665e-05 32.0323 68.619 1 85 303 -0.0117042 0.0321873 0.0242398 2.24691e-07 1.7961e-05 
0 28.662 70.2521 -4.43665e-05 32.0323 68.619 1 86 303 -0.00739356 0.0158355 0.0114324 1.41342e-07 1.12795e-05 
0 38.6768 76.6401 1.1191e-06 35.5077 74.4889 1 2707 753 0.0262825 0.228003 -0.154846 8.01423e-07 6.48258e-05 
0 37.357 77.3297 1.1191e-06 35.5077 74.4889 1 2721 753 0.0614928 0.231905 -0.0366402 7.16836e-07 5.78816e-05 
0 37.2187 77.5953 1.1191e-06 35.5077 74.4889 1 2722 753 0.0261419 0.150495 -0.0156706 5.30331e-07 4.26573e-05 
0 36.8571 77.1891 1.1191e-06 35.5077 74.4889 1 125 753 -0.103852 0.376362 -0.0769534 9.91025e-07 8.04826e-05 
0 36.8746 77.192 1.1191e-06 35.5077 74.4889 1 124 753 -0.101108 0.376439 -0.0813518 9.91417e-07 8.05151e-05 
0 36.6968 77.2947 1.1191e-06 35.5077 74.4889 1 2649 753 0.0925613 0.468216 -0.202661 1.17759e-06 9.60143e-05 
0 38.7228 76.5884 1.1191e-06 35.5077 74.4889 1 134 753 0.0152566 0.228574 -0.163602 8.10731e-07 6.55915e-05 
0 38.6427 76.152 1.1191e-06 35.5077 74.4889 1 137 753 -0.0022725 0.00539446 -0.00369754 6.78317e-08 5.40518e-06 
0 38.6989 76.5271 1.1191e-06 35.5077 74.4889 1 136 753 0.0167959 0.0653177 -0.554792 1.23637e-06 0.000100934 
0 38.6244 76.1559 1.1191e-06 35.5077 74.4889 1 138 753 -0.00226029 0.00529392 -0.00359913 6.69499e-08 5.33482e-06 
0 38.487 76.8809 1.1191e-06 35.5077 74.4889 1 120 753 0.0447067 0.102548 -0.380619 9.89046e-07 8.03185e-05 
0 35.1525 78.3748 1.1191e-06 35.5077 74.4889 1 2726 753 0.0186854 0.0871331 -0.0195636 3.75997e-07 3.01481e-05 
0 37.3048 77.1871 1.1191e-06 35.5077 74.4889 1 123 753 -0.0533397 0.369383 -0.159689 1.004e-06 8.15584e-05 
0 37.3707 77.2518 1.1191e-06 35.5077 74.4889 1 2650 753 0.0848417 0.232244 -0.0288369 7.2887e-07 5.8868e-05 
0 35.0693 78.3104 1.1191e-06 35.5077 74.4889 1 2672 753 -0.000687783 0.309494 -0.110485 8.74454e-07 7.08415e-05 
0 36.7284 77.8286 1.1191e-06 35.5077 74.4889 1 2703 753 -0.0144172 0.0733387 0.0043525 3.2988e-07 2.64256e-05 
0 36.435 77.7683 1.1191e-06 35.5077 74.4889 1 2702 753 -0.0202033 0.117642 0.00583239 4.4946e-07 3.60926e-05 
0 36.4639 77.5731 1.1191e-06 35.5077 74.4889 1 2647 753 0.0542386 0.418454 -0.192943 1.0954e-06 8.91566e-05 
0 36.42 77.7372 1.1191e-06 35.5077 74.4889 1 126 753 -0.0219295 0.118776 0.00566182 4.52955e-07 3.63758e-05 
0 35.3712 78.3566 1.1191e-06 35.5077 74.4889 1 2644 753 -0.00803029 0.210533 -0.0914235 6.91293e-07 5.57895e-05 
0 35.4081 78.4273 1.1191e-06 35.5077 74.4889 1 2724 753 0.00151063 0.0543317 0.0280292 2.88487e-07 2.30904e-05 
0 35.1014 78.3771 1.1191e-06 35.5077 74.4889 1 2674 753 0.0156509 0.0887465 -0.0234185 3.81086e-07 3.05593e-05 
0 34.7501 78.3063 1.1191e-06 35.5077 74.4889 1 2673 753 -0.00263748 0.206782 -0.0566812 6.60777e-07 5.3293e-05 
0 0 0 -1.49332 -23.5404 -11.5428 0 914 675 0.0473941 -0.310499 0.742837 1.72197e-06 0.000142077 
0 0 0 -7.90952 20.2148 -2.86322 0 954 1878 -0.0752326 -0.0113848 -0.296006 1.19094e-06 9.71308e-05 
0 67.305 -35.9113 0.150077 68.1351 -33.3055 1 1856 405 0.0276138 -0.0126223 0.0215559 3.00009e-07 2.40182e-05 
0 67.4251 -35.6588 0.150077 68.1351 -33.3055 1 1851 405 0.0508037 -0.0246275 0.0422457 4.00271e-07 3.21104e-05 
0 66.6202 -36.6815 0.150077 68.1351 -33.3055 1 514 405 0.0856642 -0.195166 0.264782 9.45199e-07 7.66868e-05 
0 66.6078 -36.8817 0.150077 68.1351 -33.3055 1 513 405 0.00345691 -0.0992029 0.0725642 5.38473e-07 4.33195e-05 
0 66.9041 -36.2611 0.150077 68.1351 -33.3055 1 516 405 0.148234 -0.177476 0.247525 9.51961e-07 7.72464e-05 
0 66.8565 -36.3612 0.150077 68.1351 -33.3055 1 515 405 0.147914 -0.199344 0.157719 9.22529e-07 7.48117e-05 
0 67.0714 -35.4799 0.150077 68.1351 -33.3055 1 476 405 0.0900723 -0.0118524 0.0978338 5.2378e-07 4.21247e-05 
0 0 0 1.30561e-07 -4.22776e-08 -3.20391e-10 0 885 23 -0.17358 -0.734528 -28.6799 1.17855e-05 0.00150145 
0 0 0 -2.65627e-07 9.795e-07 -1.15905e-12 0 885 765 -0.917876 -0.248835 -28.747 1.17929e-05 0.0015038 
0 0 0 -1.22749e-07 2.44104e-07 -7.9464e-10 0 885 1484 0.176065 0.757047 -28.539 1.177e-05 0.00149654 
0 0 0 1.35763e-07 -3.87918e-08 7.95921e-10 0 885 124 -0.388851 -1.00648 -28.7372 1.17918e-05 0.00150346 
0 0 0 0 1.42023e-19 6.16511e-12 0 885 1052 1.77849e-305 8.21841e-05 -28.6382 1.1781e-05 0.0015 
0 0 0 4.7523e-06 1.31461e-05 -4.2994e-06 0 885 1441 -1.38161e-06 6.82605e-05 -28.6382 1.1781e-05 0.0015 
0 0 0 -9.39807e-147 6.09427e-20 6.1653e-12 0 885 173 1.67154e-142 8.21841e-05 -28.6382 1.1781e-05 0.0015 
0 0 0 -1.62957e-14 6.70747e-15 -1.11884e-12 0 885 874 -1.79244e-14 8.21841e-05 -28.6382 1.1781e-05 0.0015 
0 0 0 -0.000190193 -0.000546849 -1.86783e-06 0 885 281 1.04595 -0.264634 -28.4416 1.17592e-05 0.00149313 
0 0 0 -0.000180357 0.000941742 4.02552e-06 0 885 2235 -1.15748 0.716937 -28.9195 1.18115e-05 0.00150981 
0 0 0 -8.13807e-68 8.11493e-20 1.12862e-12 0 885 1154 2.54852e-66 8.21841e-05 -28.6382 1.1781e-05 0.0015 
0 0 0 0.000370543 -0.000394887 -2.1598e-06 0 885 171 -0.20342 -0.165677 -28.5541 1.17717e-05 0.00149706 
0 0 0 1.30561e-07 -4.22776e-08 -3.20391e-10 0 850 23 -0.14645 -0.619656 28.5965 1.17764e-05 0.00149855 
0 0 0 -2.65627e-07 9.795e-07 -1.15905e-12 0 850 765 -0.620776 -0.168265 28.5295 1.1769e-05 0.0014962 
0 0 0 -1.22749e-07 2.44104e-07 -7.9464e-10 0 850 1484 0.274232 1.01418 28.7375 1.17918e-05 0.00150346 
0 0 0 1.35763e-07 -3.87918e-08 7.95921e-10 0 850 124 -0.289528 -0.74943 28.5393 1.17701e-05 0.00149654 
0 0 0 0 1.42023e-19 6.16511e-12 0 850 1052 -1.77849e-305 8.21841e-05 28.6382 1.1781e-05 0.0015 
0 0 0 4.7523e-06 1.31461e-05 -4.2994e-06 0 850 1441 -2.40811e-06 7.79667e-05 28.6382 1.1781e-05 0.0015 
0 0 0 -9.39807e-147 6.09427e-20 6.1653e-12 0 850 173 -1.67227e-142 8.21841e-05 28.6382 1.1781e-05 0.0015 
0 0 0 -1.62957e-14 6.70747e-15 -1.11884e-12 0 850 874 3.36082e-14 8.21841e-05 28.6382 1.1781e-05 0.0015 
0 0 0 -0.000190193 -0.000546849 -1.86783e-06 0 850 281 1.55224 -0.392989 28.8352 1.18024e-05 0.00150687 
0 0 0 -0.000180357 0.000941742 4.02552e-06 0 850 2235 -0.841825 0.429499 28.3577 1.17499e-05 0.00149019 
0 0 0 0.000370543 -0.000394887 -2.1598e-06 0 850 171 -0.395458 -0.322643 28.7223 1.17902e-05 0.00150294 
0 0 0 -8.13807e-68 8.11493e-20 1.12862e-12 0 851 1154 -2.49813e-66 8.21841e-05 28.6382 1.1781e-05 0.0015 
0 0 0 -0.0419995 -0.0199614 0.0237397 0 895 1377 -0.00153453 0.00451773 -0.00234152 1.81982e-08 1.44869e-06 
0 0 0 -0.0108213 -0.141025 0.0115144 0 895 1519 -0.00100252 0.00390023 -0.000916663 9.22555e-09 7.34281e-07 
0 0 0 -0.00380553 -0.14113 -0.00793333 0 895 1280 -0.00323356 0.00830701 -0.000309569 1.73306e-08 1.3796e-06 
0 0 0 0.0214605 -0.0894438 0.0177379 0 895 1086 0.000487657 0.00252163 -0.00513671 4.83258e-08 3.84935e-06 
0 0 0 0.099135 -0.0302267 -0.0584572 0 853 513 -0.00090131 -0.00973992 -0.000760715 1.09351e-07 8.72091e-06 
0 0 0 -0.0620257 0.0496836 0.0734962 0 853 2081 0.00112968 -0.0163246 -0.00562219 1.02642e-07 8.18475e-06 
0 0 0 -0.118077 0.0141844 0.0960753 0 853 2002 0.00101751 -0.00763573 -0.00367978 6.93085e-08 5.52302e-06 
0 0 0 -0.0445281 0.0054653 0.0764855 0 853 2004 0.000620073 -0.00321026 3.2876e-05 3.99251e-08 3.17967e-06 
0 0 0 0.06242 -0.0138738 0.010722 0 853 2243 0.00320718 -0.0153505 0.00302685 1.31597e-07 1.04997e-05 
0 0 0 0.0327288 0.00281524 -0.0364544 0 853 1574 -0.0013441 -0.00328144 -0.000940925 4.24474e-08 3.38071e-06 
0 0 0 -0.0559735 -0.0208087 0.0857048 0 853 1354 -0.0016427 -0.00328986 8.56637e-05 5.90782e-08 4.70683e-06 
0 0 0 -0.00399194 0.016655 0.0365009 0 853 493 -0.00600187 -0.00288565 0.00051638 2.8877e-08 2.29928e-06 
0 0 0 -0.0281521 0.00849067 0.173394 0 853 66 0.00947412 -0.0231221 -0.000600123 1.58612e-07 1.2662e-05 
0 0 0 0.118906 0.0137854 0.0271812 0 853 1356 -0.00130534 -0.00261132 2.86925e-05 2.81231e-08 2.23921e-06 
0 0 0 0.0837018 -0.00249525 0.152725 0 853 1424 -0.000272807 -0.0012191 -0.000545096 2.50424e-08 1.99381e-06 
0 0 0 -0.0599918 0.000525837 0.197644 0 853 2272 0.00812592 -0.0165154 -0.00146944 1.29975e-07 1.037e-05 
0 0 0 0.0236543 0.0280556 0.18016 0 853 969 0.0135141 -0.0394339 0.00114859 2.19269e-07 1.75257e-05 
0 0 0 0.0384107 0.0519482 0.22765 0 853 309 0.00274027 -0.0279316 -0.0136943 1.59272e-07 1.27149e-05 
0 0 0 -0.136563 -0.025715 0.17175 0 853 1965 0.000837771 -0.0101692 -0.00221188 1.09281e-07 8.71527e-06 
0 0 0 0.0176946 -0.026603 0.121773 0 853 1543 -0.00124734 -0.00721206 0.000894698 9.14191e-08 7.28818e-06 
0 0 0 -0.12697 0.112474 0.122166 0 853 1745 -0.0152229 -0.0760466 0.00541646 3.12572e-07 2.50303e-05 
0 0 0 -0.0756104 0.0599823 0.199384 0 853 1433 0.00158397 -0.00715652 -0.00320858 3.84516e-08 3.06223e-06 
0 0 0 0.119873 -0.0135977 0.00755443 0 853 1491 -0.00125778 -0.0310377 -0.00743539 2.04635e-07 1.63512e-05 
0 0 0 0.114085 -0.0194123 0.108339 0 853 1016 0.000276944 -0.00514644 0.000203345 7.25946e-08 5.78527e-06 
0 0 0 -0.00825828 0.00620186 0.0541398 0 853 1233 0.00301433 -0.0331928 -0.00550303 2.04176e-07 1.63144e-05 
0 0 0 -0.0042098 -0.0058219 0.0742914 0 853 2092 -0.0014737 -0.000211499 -0.000779261 1.34938e-08 1.07409e-06 
0 0 0 0.00641941 0.0146236 0.0776447 0 853 1801 -0.00229043 -0.00467033 0.000454912 4.65183e-08 3.70524e-06 
0 0 0 6.13071e-19 -2.14703e-19 1.69031e-12 0 884 331 1.14219e-19 8.21841e-05 -28.6382 1.1781e-05 0.0015 
0 0 0 0.0811055 -0.129 0.0212366 0 884 694 0.00026603 -0.00178344 0.00377277 6.32997e-08 5.04359e-06 
0 0 0 -0.0299861 -0.0682261 0.0241346 0 884 2289 0.000464648 0.000626438 -0.000391854 2.27447e-08 1.81079e-06 
0 0 0 -0.00990746 -0.153082 0.564241 0 884 1671 0.00144549 -0.0404381 0.0872154 6.16125e-07 4.96458e-05 
0 0 0 0.114947 0.276956 0.0492482 0 884 498 -0.00209837 -0.0108902 0.022181 1.83522e-07 1.46579e-05 
0 0 0 6.13071e-19 -2.14703e-19 1.69031e-12 0 850 331 -4.34334e-19 8.21841e-05 28.6382 1.1781e-05 0.0015 
0 0 0 0.062772 0.082743 0.0527438 0 852 338 0.00549478 -0.0342438 -0.00735917 1.72381e-07 1.3765e-05 
0 0 0 0.0633514 -0.0123252 0.101974 0 852 1229 -0.00108314 -0.0153989 0.00298902 1.31014e-07 1.04531e-05 
0 0 0 -0.0292242 0.0106222 -0.00356733 0 894 358 -0.000316618 0.000329968 -0.00118815 2.55539e-08 2.03455e-06 
0 0 0 0.00818581 -0.0765992 -0.00696907 0 894 1585 -0.000360799 0.000528728 -0.000258094 1.55072e-08 1.23441e-06 
0 0 0 0.0130276 -0.0586369 -0.000138558 0 894 18 -3.73577e-05 4.38344e-05 -0.000115343 4.9418e-09 3.93294e-07 
0 0 0 0.0289289 -0.0230722 0.0124524 0 894 1908 -0.00410774 -0.00242088 -0.0074896 6.93432e-08 5.52579e-06 
0 0 0 -0.0150298 -0.0363435 -0.00149786 0 894 1995 -0.00201479 0.0013746 -0.000839563 1.92392e-08 1.53159e-06 
0 0 0 0.0147833 -0.118666 -0.00168368 0 894 95 0.000177054 0.00241209 -0.00099204 2.14699e-08 1.70925e-06 
0 0 0 -0.0561926 0.00599598 -0.0065336 0 894 16 0.00384282 -0.00150573 -0.0101392 9.79602e-08 7.81068e-06 
0 0 0 -0.0127946 -0.0450673 1.59987e-05 0 894 1790 0.000432394 0.000840693 -0.00151158 2.64963e-08 2.10962e-06 
0 0 0 -0.000778057 -0.0159687 0.00413248 0 894 1834 0.000136387 0.000226164 -0.000819105 1.44107e-08 1.1471e-06 
0 0 0 -0.0403367 0.000572246 -0.00145479 0 894 532 0.000443108 0.00129712 -0.00636878 7.00103e-08 5.57902e-06 
0 0 0 0.0332995 -0.00853577 -0.000887124 0 894 1935 -5.18543e-05 5.3755e-05 -0.000433595 1.24092e-08 9.87739e-07 
0 0 0 0.0374957 -0.0315087 -0.00258831 0 894 1340 -8.95954e-06 -3.19242e-05 6.63152e-05 1.48666e-09 1.18308e-07 
0 0 0 0 4.97667e-23 -2.24229e-12 0 894 272 1.77034e-305 8.21841e-05 28.6382 1.1781e-05 0.0015 
0 0 0 0.12524 0.00257315 0.170189 0 852 2029 0.000968988 -0.00258603 -0.000856122 3.60263e-08 2.86894e-06 
0 0 0 0 4.97667e-23 -2.24229e-12 0 849 272 -1.77034e-305 8.21841e-05 -28.6382 1.1781e-05 0.0015 
0 0 0 0.00546535 -0.0993255 0.00594435 0 895 1676 -0.00232959 0.00627089 -0.0016623 2.35611e-08 1.87581e-06 
0 0 0 0.0051288 -0.0801563 -0.00162334 0 895 2166 0.000743279 0.00106056 -0.00260976 3.93296e-08 3.1322e-06 
0 0 0 0.00936617 -0.12035 0.00390386 0 895 567 0.00245518 0.000260535 -0.0069369 7.07163e-08 5.63537e-06 
0 0 0 0.0862923 -0.0713873 -0.00173341 0 895 580 -0.000103319 0.000115269 -0.000309592 1.10217e-08 8.77268e-07 
0 0 0 -0.000778057 -0.0159687 0.00413248 0 895 1834 -0.000861319 0.00202306 -0.00529328 5.84047e-08 4.65311e-06 
0 0 0 -0.0794332 -0.0911255 -0.0153714 0 895 2094 -0.000387672 0.000699213 -0.00659285 8.03141e-08 6.40144e-06 
0 0 0 0.00726231 -0.0786278 -0.000331509 0 895 916 -0.0018176 0.000146831 -0.00494518 5.86009e-08 4.66876e-06 
0 0 0 -0.0376422 -0.0058977 -0.00220211 0 895 729 0.00076448 0.000804021 -0.00925019 8.9882e-08 7.16541e-06 
0 0 0 2.18943 -26.3645 14.9575 0 925 90 0.0132471 -0.0683164 0.0149933 7.76705e-07 6.2794e-05 
0 0 0 2.0547 -25.7577 -0.436474 0 921 439 0.0230966 -0.0718718 0.300889 2.83835e-07 2.27159e-05 
0 0 0 2.0547 -25.7577 -0.436474 0 366 439 0.0908405 0.197936 0.779069 1.25261e-06 0.000102296 
0 0 0 -2.4037 -19.697 -4.83804 0 917 92 -0.0013048 -0.00689898 0.00879458 3.07705e-07 2.46382e-05 
0 0 0 -2.4037 -19.697 -4.83804 0 437 92 0.119738 0.0317569 0.509339 8.13656e-07 6.58321e-05 
0 0 0 -5.99306 -16.8984 -10.9093 0 914 657 0.117631 -0.263942 0.526063 7.52429e-07 6.08006e-05 
0 0 0 2.37275e-07 1.64925e-12 2.18398e-12 0 961 428 9.87558e-16 9.45454 12.5197 9.45155e-06 0.00100427 
0 0 0 2.37275e-07 1.64925e-12 2.18398e-12 0 753 428 -1.00383e-15 -9.45437 -12.5197 9.45152e-06 0.00100427 
0 77.019 -38.2033 0.0705534 74.5093 -35.228 1 526 1181 -0.0161929 -0.070214 -0.157809 5.84818e-07 4.70927e-05 
0 77.0655 -38.2443 0.0705534 74.5093 -35.228 1 527 1181 -0.00299756 -0.0510497 -0.115422 4.79342e-07 3.85157e-05 
0 77.1709 -37.7396 0.0705534 74.5093 -35.228 1 541 1181 -0.032894 -0.16327 -0.379547 1.02938e-06 8.36654e-05 
0 77.3523 -37.1358 0.0705534 74.5093 -35.228 1 523 1181 -0.0960463 -0.0729709 -0.30168 8.83753e-07 7.16088e-05 
0 77.7418 -37.1259 0.0705534 74.5093 -35.228 1 1870 1181 -0.0337528 -0.00916482 -0.14027 5.09323e-07 4.09499e-05 
0 77.699 -36.9899 0.0705534 74.5093 -35.228 1 1869 1181 -0.0617578 -0.023691 -0.269957 7.89208e-07 6.38215e-05 
0 77.656 -37.4884 0.0705534 74.5093 -35.228 1 1871 1181 -0.025463 -0.0296537 -0.179283 6.0141e-07 4.84454e-05 
0 77.5409 -36.4885 0.0705534 74.5093 -35.228 1 1868 1181 -0.0528211 -0.24467 -0.510528 1.24358e-06 0.000101539 
0 78.2366 -36.3966 0.0705534 74.5093 -35.228 1 1892 1181 0.00460402 0.00578619 -0.0388514 2.29106e-07 1.83155e-05 
0 78.3724 -34.9751 0.0705534 74.5093 -35.228 1 1829 1181 -0.0275754 -0.186096 -0.445331 1.12128e-06 9.13135e-05 
0 78.3598 -36.009 0.0705534 74.5093 -35.228 1 1893 1181 -0.0812428 -0.0339344 -0.208272 6.88375e-07 5.55506e-05 
0 78.2448 -35.0091 0.0705534 74.5093 -35.228 1 1885 1181 -0.0485404 -0.235225 -0.58357 1.33054e-06 0.000108843 
0 77.7416 -33.6315 0.0705534 74.5093 -35.228 1 1834 1181 -0.0154993 0.026795 -0.150136 5.1344e-07 4.12844e-05 
0 77.7601 -33.6313 0.0705534 74.5093 -35.228 1 1835 1181 -0.0147743 0.0254374 -0.149772 5.12156e-07 4.118e-05 
0 77.9945 -34.215 0.0705534 74.5093 -35.228 1 1887 1181 -0.0177873 0.0251338 -0.0241556 1.9078e-07 1.52399e-05 
0 77.5327 -37.876 0.0705534 74.5093 -35.228 1 1873 1181 -0.000585254 -0.00458618 -0.0169729 1.4216e-07 1.13449e-05 
0 77.0041 -38.3727 0.0705534 74.5093 -35.228 1 530 1181 0.00033634 -0.0084479 -0.0176352 1.58028e-07 1.26153e-05 
0 78.187 -35.6901 0.0705534 74.5093 -35.228 1 1826 1181 -0.0164696 0.0216195 -0.246832 7.36135e-07 5.94637e-05 
0 78.0751 -35.7855 0.0705534 74.5093 -35.228 1 1842 1181 0.0262124 0.0444906 -0.202358 6.60392e-07 5.32615e-05 
0 78.3456 -35.2465 0.0705534 74.5093 -35.228 1 1831 1181 -0.0266823 -0.210161 -0.45808 1.15799e-06 9.43766e-05 
0 78.3286 -35.2645 0.0705534 74.5093 -35.228 1 1828 1181 -0.0257874 -0.209455 -0.464732 1.16715e-06 9.51416e-05 
0 78.3809 -35.0376 0.0705534 74.5093 -35.228 1 1830 1181 -0.0273708 -0.188751 -0.434411 1.10848e-06 9.02458e-05 
0 77.9807 -33.1915 0.0705534 74.5093 -35.228 1 1837 1181 -0.0070123 0.0143667 -0.00469099 8.21292e-08 6.54635e-06 
0 0 0 -0.00206666 0.000467882 -0.000244762 0 963 716 -0.821668 4.68308 13.3694 8.76999e-06 0.000900715 
0 0 0 -0.0240862 -0.0898725 0.0169552 0 892 2032 -0.000595954 -1.8574e-05 -0.000297398 3.58449e-08 2.85448e-06 
0 0 0 -0.00206666 0.000467882 -0.000244762 0 751 716 0.623251 -5.16398 -8.93268 7.54355e-06 0.000735558 
0 0 0 -0.00206666 0.000467882 -0.000244762 0 752 716 0.198613 0.481034 -4.43672 4.73886e-06 0.000421528 
0 0 0 -0.00315495 -0.253994 0.116193 0 888 656 -0.000313418 0.00920805 -0.00590211 1.25629e-08 9.99973e-07 
0 0 0 0.00131001 -0.282512 0.0742674 0 888 2197 -0.000728651 0.000348868 -0.000104996 1.5115e-08 1.20318e-06 
0 0 0 -0.0075662 -0.00737773 0.0802948 0 888 1747 0.000241778 3.02037e-05 0.000117055 2.12225e-09 1.68891e-07 
0 0 0 -0.0282847 0.00479339 0.0832229 0 888 848 -0.0208747 -0.0012426 0.00263233 1.66756e-07 1.33143e-05 
0 0 0 0.0308558 -0.00224745 0.196645 0 888 834 -0.00250227 -0.000450815 -0.00116709 1.52505e-08 1.21396e-06 
0 0 0 -0.0230248 -0.105694 0.0122201 0 888 1991 -0.0132688 -0.00177506 0.00109952 1.25404e-07 1.00043e-05 
0 0 0 0.0134385 -0.022951 0.174667 0 888 551 -0.006476 -3.2051e-05 -9.92013e-05 6.14363e-08 4.89493e-06 
0 0 0 0.012929 -0.0484173 0.148026 0 888 2294 -0.00275535 -0.000689799 -3.31925e-05 3.02104e-08 2.40551e-06 
0 0 0 9.03645e-05 0.0374011 0.0580862 0 888 1889 -0.00604496 0.000105814 0.000703964 6.66779e-08 5.31312e-06 
0 0 0 -0.0123079 -0.0432073 0.114975 0 888 825 -0.000773659 0.000336667 0.000190505 2.78562e-08 2.21795e-06 
0 0 0 -0.00786699 -0.0170802 0.0507251 0 888 378 -0.00326969 0.00153753 -0.000555622 4.98581e-08 3.97152e-06 
0 0 0 0.0956503 0.000426507 0.138299 0 853 1769 -0.00361261 -0.00726739 0.000390942 7.51777e-08 5.99143e-06 
0 0 0 -0.00897098 -0.0155793 0.0611052 0 853 1746 0.00117312 -0.0010657 0.00285072 3.40757e-08 2.7135e-06 
0 0 0 -0.00786699 -0.0170802 0.0507251 0 853 378 0.000195628 -0.00240545 -0.00118671 4.8728e-08 3.88142e-06 
0 0 0 -0.0153851 0.0508761 0.00286509 0 891 1380 -0.00231032 0.000398769 -0.00179879 4.66026e-08 3.71196e-06 
0 0 0 -0.0184354 -0.153218 0.0243879 0 891 836 -0.0113171 0.000882864 -0.00129662 1.11826e-07 8.91868e-06 
0 0 0 -0.000975207 -0.0766113 0.049718 0 891 744 -0.00645886 0.00145417 0.000975829 7.03561e-08 5.60662e-06 
0 0 0 0.00169724 -0.0249626 0.0535904 0 887 1088 -0.00135262 -0.00055404 -0.000387856 2.32318e-08 1.84958e-06 
0 0 0 -0.012977 -0.0940965 0.0135643 0 892 2009 -0.00188234 0.000478161 -0.000810656 4.06629e-08 3.23847e-06 
0 0 0 -0.00562954 0.00135502 -0.00406096 0 895 314 6.96538e-06 0.00051607 -0.00208408 3.59171e-08 2.86024e-06 
0 0 0 0.00385611 -0.13974 -0.00192445 0 888 1442 -0.0030248 1.91288e-05 0.00330294 3.93321e-08 3.1324e-06 
0 0 0 0.00632949 -0.0803724 -0.012941 0 888 1114 -0.0060863 0.00131425 0.00141708 6.3024e-08 5.02159e-06 
0 0 0 0.00936654 -0.0220921 0.056409 0 888 2201 -0.00277483 -0.00066253 0.000287598 3.29641e-08 2.62492e-06 
0 0 0 -0.00406406 -0.000217364 0.0851605 0 888 1595 6.2864e-05 -8.149e-05 -0.00479171 4.89378e-09 3.89473e-07 
0 0 0 0.0121438 -0.0306209 0.0889684 0 888 668 -0.00373394 0.00151283 -0.00109404 4.00714e-08 3.19132e-06 
0 0 0 0.735409 7.46267 40.8428 0 385 165 -0.0065017 0.362018 0.086453 1.64577e-06 0.00013556 
0 0 0 0.115796 0.137507 21.7524 0 383 2252 -0.00023389 -0.0667829 0.0142564 1.91361e-08 1.52338e-06 
0 0 0 0.582037 -1.06937 22.8645 0 383 588 0.00245423 0.6656 -0.0164647 1.45958e-06 0.000119734 
0 0 0 1.93984 -5.865 34.9475 0 381 1375 0.00136702 0.208108 0.125851 1.27849e-06 0.000104468 
0 0 0 3.96523 -18.28 33.5206 0 379 1516 0.0170703 0.647092 0.319774 4.35758e-07 3.49825e-05 
0 0 0 -0.622705 -18.7096 16.9122 0 375 2224 -0.0701843 0.294018 0.298608 2.97118e-07 2.37854e-05 
0 0 0 0.388691 -16.2668 18.1669 0 375 2321 -0.00649799 0.443355 0.317178 1.24408e-06 0.00010158 
0 0 0 -1.94975 -18.4265 17.739 0 373 1381 -0.100257 0.0654868 0.209239 1.42158e-06 0.00011652 
0 0 0 -1.38869 27.1901 32.6748 0 391 1241 -0.00233481 0.125121 -0.0219289 1.33179e-06 0.000108948 
0 0 0 -1.05931 13.9206 39.8263 0 387 2264 -0.0459384 1.19485 -0.695277 2.71566e-06 0.000229244 
0 0 0 15.0836 -42.953 14.3933 0 369 2162 -0.709017 0.632632 1.31717 2.28042e-06 0.000190547 
0 0 0 2.21819 23.3189 4.90701 0 399 1657 -0.00487977 0.0985418 -0.268271 1.21533e-06 9.91714e-05 
0 0 0 -3.17059 23.6515 9.14986 0 397 1850 -0.00429005 -0.00944584 0.137032 1.73017e-07 1.3816e-05 
0 0 0 -6.33213 -21.0806 -6.24917 0 435 376 0.0230752 -0.0882357 0.153443 1.01252e-06 8.22654e-05 
0 0 0 9.19828 -50.527 -17.2365 0 433 944 0.295718 -0.713536 -0.758083 2.8374e-06 0.000240219 
0 0 0 0.454367 -24.9001 -22.1147 0 431 1787 -0.0524382 -0.603974 0.927227 1.6703e-06 0.000137656 
0 0 0 2.39412 -9.68647 -35.8565 0 425 2248 0.290061 -0.539112 0.149233 2.30937e-07 1.84626e-05 