ITEM: TIMESTEP
18750000
ITEM: NUMBER OF ENTRIES
1291
ITEM: BOX BOUNDS ff ff ff
-0.01 0.45
-0.15 0.15
-0.08 0.1
ITEM: ENTRIES c_ppc[1] c_ppc[2] c_ppc[3] c_ppc[4] c_ppc[5] c_ppc[6] c_ppc[7] c_ppc[8] c_ppc[9] c_ppc[10] c_ppc[11] c_ppc[12] c_ppc[13] c_ppc[14] 
0.220238 5.76219 -6.04322 -0.817214 3.59423 -12.0128 143 1183 0 -0.267174 0.284855 -0.0953578 5.27716e-07 8.48894e-05 
-2.89058e-09 -1.81038e-09 -2.63738e-11 2.51451e-09 -1.32391e-09 -3.29811e-13 665 23 0 -0.317736 -1.34629 -0.2304 2.36402e-06 0.00039583 
-0.284783 0.433031 -0.627468 -1.75866 1.53399 -1.96432 285 1070 0 0.0320362 0.00770516 -0.0123042 1.0888e-07 1.73664e-05 
-1.75866 1.53399 -1.96432 0.39141 2.33268 -0.357565 1070 589 0 -0.0189237 -0.301943 -0.0064516 1.07879e-06 0.000175547 
0.39141 2.33268 -0.357565 0.0584248 0.884095 0.364321 589 1833 0 0.0475394 -0.320826 -0.0613068 7.59842e-07 0.000122818 
0.0584248 0.884095 0.364321 0.00206469 0.297693 0.0895046 1833 1419 0 0.00452238 -0.0373101 -0.0192059 9.34427e-08 1.48996e-05 
1.1578 2.03626 1.24599 -0.0450554 0.711792 0.645084 361 1863 0 0.0545812 -0.129446 -0.050298 4.88808e-07 7.85678e-05 
-0.0450554 0.711792 0.645084 0.0551306 0.0256781 0.132838 1863 654 0 0.00237221 0.00142914 -0.0153111 9.02684e-08 1.43926e-05 
-0.416177 0.465049 -0.296667 -0.0264739 -0.11755 -0.163978 2123 868 0 0.00174604 8.89298e-05 0.000521377 1.76902e-08 2.81647e-06 
0.0262253 -0.120752 -0.353964 -0.0538502 -0.0780438 -0.0212297 1097 85 0 1.4426e-05 -0.000519941 0.000311248 1.2208e-08 1.94344e-06 
0.14009 0.486738 0.16938 0.812626 0.905111 -0.0987872 104 1350 0 -0.0435305 -0.0245485 0.00206385 4.38355e-07 7.03857e-05 
0.14009 0.486738 0.16938 0.0390805 -0.138318 0.0329252 104 1637 0 0.00188044 -0.0145741 -0.0161766 6.82902e-08 1.08835e-05 
1.20265 0.0942961 -0.161018 0.0688319 0.639049 0.17283 147 1829 0 -0.013481 -0.0406831 0.0165627 3.51301e-07 5.63077e-05 
0.0688319 0.639049 0.17283 0.196621 0.0919148 -0.102918 1829 1300 0 -0.0410853 -0.0771117 0.0081313 3.19815e-07 5.12282e-05 
0.268321 0.860144 -0.612799 -0.00229113 -0.228711 -0.0113697 587 2076 0 0.0003517 -0.000644619 -0.000333704 4.57363e-08 7.28579e-06 
0.175467 -0.0820337 0.0454027 0.027662 0.37949 -0.1212 1576 1951 0 0.00116767 0.0306597 -0.0757691 3.08196e-07 4.93554e-05 
0.21273 0.309002 0.310144 0.00790153 0.135155 -0.0481657 157 1805 0 0.00386992 -0.00716236 -0.00459104 5.10223e-08 8.12872e-06 
-0.0801481 -0.25153 -0.00853352 -0.0692147 -0.201821 -0.0221004 1284 519 0 -0.000127488 -0.00106104 0.00116322 4.51259e-08 7.18847e-06 
-0.0498942 -0.189031 -0.0472147 -0.0635126 -0.154209 0.00779367 2194 816 0 -8.4728e-05 -0.00206838 -0.000399114 4.618e-08 7.35654e-06 
-0.0633876 -0.0848027 -0.107719 -0.0549277 -0.0905378 0.0531204 998 1002 0 -0.000183433 0.000195444 0.000106431 6.69614e-09 1.06587e-06 
-0.0839338 -0.133884 -0.198685 0.00876143 -0.207622 -0.0367221 1969 273 0 0.0124794 -0.00417079 0.00961119 9.26295e-09 1.47452e-06 
-0.25504 -0.153368 0.55891 -0.259303 -0.235074 0.144311 2063 1618 0 0.0281288 0.0103903 -0.0191818 1.98414e-07 3.17041e-05 
-0.25504 -0.153368 0.55891 -0.0366896 0.00391606 -0.0620889 2063 1059 0 0.000578529 -0.00194656 -0.00606545 7.31732e-08 1.16629e-05 
-0.223991 0.606113 0.189669 0.027662 0.37949 -0.1212 2070 1951 0 0.00840171 -0.0766522 -0.0227269 3.13813e-07 5.02607e-05 
0.00876143 -0.207622 -0.0367221 -0.259303 -0.235074 0.144311 273 1618 0 -0.00065174 0.00107126 0.000509869 9.33434e-09 1.48588e-06 
0.00119203 0.0941285 0.00286203 0.155501 -0.103478 -0.0181906 1445 1901 0 -0.0738008 0.0034839 -0.0257251 3.89765e-07 6.25217e-05 
0.00119203 0.0941285 0.00286203 -0.223704 -0.138111 0.0661654 1445 1958 0 -0.0223246 -0.0177863 0.00626246 1.00284e-07 1.59926e-05 
0.0580296 0.192978 0.573165 0.155501 -0.103478 -0.0181906 796 1901 0 0.0671561 0.0306252 0.0186145 3.33538e-07 5.34412e-05 
0.0580296 0.192978 0.573165 -0.113267 0.104665 0.125633 796 1662 0 -0.0495513 -0.103119 -0.0361744 4.21157e-07 6.76004e-05 
-0.223704 -0.138111 0.0661654 -0.0842507 0.24628 -0.0238743 1958 520 0 -0.00616368 -0.00036977 -0.00286735 1.35569e-07 2.1635e-05 
-0.223704 -0.138111 0.0661654 -0.0322971 0.196178 0.195626 1958 197 0 0.0105336 -0.00751376 -0.00143007 1.66022e-07 2.65111e-05 
-0.0842507 0.24628 -0.0238743 -0.271894 0.123222 -0.183209 520 1308 0 0.0435603 -0.0293943 -0.00260822 2.51477e-07 4.02261e-05 
-0.0842507 0.24628 -0.0238743 -0.113267 0.104665 0.125633 520 1662 0 -0.0138573 0.00766128 -0.00633124 1.55541e-07 2.48322e-05 
-0.0842507 0.24628 -0.0238743 -0.370913 0.580307 -0.160659 520 2308 0 0.0273003 -0.0058863 -0.0288919 2.02015e-07 3.2282e-05 
0.0469384 0.0439028 0.0616032 0.127505 -0.14086 -0.0205797 1941 1301 0 0.000629593 0.000366939 0.000288164 1.044e-08 1.66193e-06 
0.0469384 0.0439028 0.0616032 -0.232682 -0.0348703 -0.0509525 1941 2296 0 -0.000458208 -0.000202761 0.00185226 1.4861e-08 2.36591e-06 
-0.0322971 0.196178 0.195626 -0.271894 0.123222 -0.183209 197 1308 0 -0.117988 -0.00254235 0.0141094 4.32704e-07 6.94702e-05 
-0.0322971 0.196178 0.195626 -0.0287339 0.0706044 0.065972 197 529 0 0.0091439 -0.0338744 0.00274631 1.85017e-07 2.95555e-05 
-0.395996 0.380502 0.104069 -0.204363 0.224372 0.0297012 1680 1216 0 -0.00407482 -0.0127289 0.00575483 7.42865e-08 1.18406e-05 
-0.271894 0.123222 -0.183209 -0.219879 -0.0333682 -0.439478 1308 241 0 -0.0750096 -0.0641343 0.00351496 4.14248e-07 6.6482e-05 
-0.243922 0.0457188 0.0207079 -0.511063 -0.158315 0.0242074 58 935 0 -0.00596663 -0.0129572 -0.0196281 4.15094e-08 6.61189e-06 
-0.243922 0.0457188 0.0207079 -0.321999 0.213405 0.0554866 58 1554 0 -0.00356258 -0.0036997 -0.00665963 7.70853e-08 1.22874e-05 
-0.0287339 0.0706044 0.065972 -0.086019 -0.114084 0.0193878 529 214 0 -0.00820983 0.000897626 0.00188568 2.20973e-08 3.51845e-06 
-0.219879 -0.0333682 -0.439478 -0.0119129 -0.0120277 -0.0404078 241 210 0 -0.0339555 -0.0812363 0.00951995 3.85381e-07 6.18129e-05 
-0.219879 -0.0333682 -0.439478 0.0294246 0.240911 0.187853 241 826 0 -0.0157337 0.0194727 -0.0177783 2.34986e-07 3.75756e-05 
-0.204363 0.224372 0.0297012 -0.201813 0.126637 0.221428 1216 1495 0 0.0046907 -0.0123233 0.000977069 7.99891e-08 1.2751e-05 
-0.086019 -0.114084 0.0193878 -0.0119129 -0.0120277 -0.0404078 214 210 0 0.00123538 0.00136299 -4.6019e-05 3.7924e-08 6.04036e-06 
-0.086019 -0.114084 0.0193878 0.00747441 -0.0364207 -0.000778208 214 1417 0 0.0130097 -0.00171441 -0.0032915 9.35049e-08 1.49096e-05 
-0.201813 0.126637 0.221428 -0.0119129 -0.0120277 -0.0404078 1495 210 0 0.0720511 -0.00926207 0.028992 3.14161e-07 5.03168e-05 
-0.201813 0.126637 0.221428 -0.294827 -0.0642611 0.17278 1495 1973 0 -0.0553975 -0.0034697 -0.00441188 2.51049e-07 4.01573e-05 
-2.18069 -0.0402757 1.30418 -1.76235 0.170462 1.58203 121 2219 0 0.00514625 0.0105585 -0.00239896 1.31859e-07 2.10414e-05 
-1.69557 2.16344 -0.328333 -0.591254 0.708425 0.725896 1987 597 0 0.172409 -0.209164 0.0724108 2.92775e-07 4.68712e-05 
-1.76235 0.170462 1.58203 -1.09518 0.0162693 0.724479 2219 527 0 -0.00317594 -0.00454725 -0.0030651 3.97647e-08 6.33377e-06 
-0.370913 0.580307 -0.160659 -0.475135 0.448403 0.113647 2308 708 0 -0.0342328 0.0319469 -0.0232068 3.11814e-07 4.99384e-05 
-0.113267 0.104665 0.125633 0.0294246 0.240911 0.187853 1662 826 0 0.025029 -0.0818404 -0.00483572 4.03584e-07 6.47565e-05 
-0.113267 0.104665 0.125633 -1.09518 0.0162693 0.724479 1662 527 0 -0.0482577 0.0122949 -0.0241965 2.23695e-07 3.5762e-05 
0.0294246 0.240911 0.187853 -0.0387947 0.146107 0.451122 826 602 0 0.0246305 -0.0162095 -0.027551 2.62583e-07 4.20121e-05 
0.0294246 0.240911 0.187853 0.171759 0.316091 0.55537 826 1056 0 -0.0146653 -0.00580497 -0.0100983 1.94126e-07 3.10163e-05 
0.171759 0.316091 0.55537 -0.359722 0.139719 0.628994 1056 1166 0 -0.0364088 0.0067774 -0.0110816 1.33913e-08 2.13186e-06 
-0.359722 0.139719 0.628994 0.0765034 0.0346322 -0.125223 1166 1122 0 0.00878329 -0.0428018 -0.0384161 1.61522e-07 2.57901e-05 
-0.294827 -0.0642611 0.17278 -0.511063 -0.158315 0.0242074 1973 935 0 -0.0358038 0.0671848 0.0182096 3.72018e-07 5.96533e-05 
-0.475135 0.448403 0.113647 -0.271491 -0.0734682 0.744781 708 1568 0 -0.00339694 0.00100887 0.0123943 6.09947e-08 9.71941e-06 
-0.475135 0.448403 0.113647 -1.47155 0.40315 0.732816 708 1090 0 -0.0892507 0.00597186 0.0175953 2.09654e-07 3.35078e-05 
-1.09518 0.0162693 0.724479 -0.591254 0.708425 0.725896 527 597 0 -0.0109485 0.0315217 -0.0436063 2.57894e-07 4.12579e-05 
-0.023444 -0.0893608 0.346898 -0.0387947 0.146107 0.451122 2119 602 0 -0.0620036 0.00373828 -0.00121763 3.01925e-07 4.83451e-05 
-0.0387947 0.146107 0.451122 0.0623108 0.270952 -0.0441781 602 1943 0 -0.0488829 0.0364633 -0.0357239 2.92157e-07 4.67717e-05 
-0.0387947 0.146107 0.451122 -0.106014 0.132836 0.232985 602 168 0 0.00083751 -0.0186545 -0.0237174 1.50596e-07 2.40404e-05 
-0.463613 -0.158288 0.215481 -0.146174 -0.083298 0.00458814 1956 1418 0 0.0212836 -0.0673579 -0.0127771 3.01102e-07 4.82124e-05 
-0.0830224 -0.00493829 0.0548372 -0.106014 0.132836 0.232985 1654 168 0 -0.00990724 0.0232727 -0.0104144 1.72088e-07 2.74831e-05 
0.0765034 0.0346322 -0.125223 -0.629139 -0.129816 -0.636445 1122 2216 0 0.0157193 0.0414721 -0.0468793 3.09232e-07 4.95223e-05 
0.00685786 2.85991 -3.29392 0.32646 -0.392584 -1.18981 1352 439 0 0.00580594 -0.0634871 0.121141 2.78036e-07 4.44984e-05 
0.733804 -0.486973 0.217565 -0.816726 -0.0943278 -0.397285 2112 29 0 -0.121878 -0.0741994 0.0192702 1.84946e-07 2.95442e-05 
-0.591254 0.708425 0.725896 -0.383016 0.797106 0.90777 597 1058 0 -0.017055 -0.116416 0.00263565 4.97766e-07 8.00223e-05 
-0.591254 0.708425 0.725896 -0.0498964 0.845454 -2.31584 597 1752 0 0.0997246 0.0103169 -0.14417 4.27615e-08 6.8115e-06 
-0.591254 0.708425 0.725896 -0.267713 0.110355 0.744361 597 1388 0 0.0355826 0.0305418 -0.0881259 4.21459e-07 6.76494e-05 
-1.47155 0.40315 0.732816 -0.77663 0.228854 0.49495 1090 987 0 -0.0138542 -0.00648286 -0.0346812 2.28314e-07 3.65039e-05 
-0.383016 0.797106 0.90777 0.0369612 0.430618 0.301972 1058 1572 0 0.00498717 -0.0779699 0.00639044 3.04477e-07 4.87561e-05 
-0.383016 0.797106 0.90777 -0.749254 -0.144753 0.784065 1058 1399 0 -0.00367565 -0.00229301 -0.0203952 1.74445e-07 2.78608e-05 
0.0623108 0.270952 -0.0441781 -0.028344 0.259927 0.460825 1943 429 0 0.0076133 -0.00936627 0.00656242 9.15729e-08 1.46009e-05 
0.0623108 0.270952 -0.0441781 -0.0784277 -0.137999 0.0390022 1943 1049 0 0.0163897 0.00641455 -0.0136801 1.89498e-07 3.0274e-05 
0.0623108 0.270952 -0.0441781 -0.386446 0.532133 0.63997 1943 631 0 -0.0292728 0.0184054 -0.0128342 1.92805e-07 3.08045e-05 
-0.386446 0.532133 0.63997 -0.0785007 -0.042146 0.114215 631 813 0 -0.00032102 -0.0130205 -0.0303154 7.97692e-08 1.27159e-05 
-0.0784277 -0.137999 0.0390022 -0.0370263 -0.115367 0.233306 1049 1765 0 0.0233567 0.0142828 -0.00164141 1.75943e-07 2.81009e-05 
-0.0784277 -0.137999 0.0390022 -0.201223 -0.0571429 -0.00840574 1049 1582 0 -0.0154605 -0.00789226 0.00383366 9.41764e-08 1.50168e-05 
-0.0784277 -0.137999 0.0390022 -0.00354045 -0.0860247 0.228068 1049 734 0 0.0337653 -0.00584155 -0.0219655 2.52445e-07 4.03818e-05 
0.0369612 0.430618 0.301972 0.298416 0.241683 0.223884 1572 1176 0 0.0140628 -0.0104898 0.00598337 1.94509e-08 3.0969e-06 
0.0369612 0.430618 0.301972 0.521216 1.29323 -0.588395 1572 158 0 -0.0700614 0.079747 -0.00303088 3.77549e-07 6.05471e-05 
0.0369612 0.430618 0.301972 0.00750718 0.166083 0.369156 1572 1756 0 0.0678219 -0.0744675 -0.0235913 4.01501e-07 6.44196e-05 
-0.028344 0.259927 0.460825 -0.106014 0.132836 0.232985 429 168 0 0.0249839 -0.0252774 0.00428442 2.21521e-07 3.54129e-05 
-0.106014 0.132836 0.232985 -0.201223 -0.0571429 -0.00840574 168 1582 0 -0.00646092 -0.0107032 -0.0258703 8.64184e-08 1.37776e-05 
-0.106014 0.132836 0.232985 -0.0432911 0.0714625 0.0622378 168 962 0 0.00950703 -0.0360717 0.00127755 1.5295e-07 2.44173e-05 
0.298416 0.241683 0.223884 -0.033653 0.508916 0.266537 1176 937 0 0.000937117 0.00987527 -0.000637947 2.92842e-08 4.66344e-06 
-0.629139 -0.129816 -0.636445 0.00750718 0.166083 0.369156 2216 1756 0 -0.0226849 0.0644282 -0.00801884 3.7032e-07 5.93791e-05 
-0.629139 -0.129816 -0.636445 -0.359104 -0.126674 -0.0493855 2216 795 0 0.02745 -0.0147348 -0.021177 2.91733e-07 4.67035e-05 
-0.033653 0.508916 0.266537 -0.11277 -0.0833631 0.221715 937 2081 0 0.0013477 -0.00983218 -0.0011191 8.96665e-10 1.42711e-07 
3.39727 -1.76808 -7.95109 0.756021 15.2125 -31.7761 2324 1047 0 -0.57996 0.0128856 -0.496866 7.66126e-07 0.00012385 
-0.267713 0.110355 0.744361 -0.443208 -0.417439 0.197395 1388 771 0 0.00145506 0.00162133 -0.0229295 6.95037e-08 1.10772e-05 
-0.267713 0.110355 0.744361 -0.51382 0.289256 -0.0585018 1388 1968 0 0.0495875 0.0237321 -0.0884155 3.27846e-07 5.25231e-05 
-0.271491 -0.0734682 0.744781 -0.0194128 -0.0461637 0.17792 1568 852 0 -0.000937504 -0.00758584 -0.00518445 6.15742e-08 9.81187e-06 
-0.0194128 -0.0461637 0.17792 -0.0732528 -0.26146 0.102342 852 1885 0 0.00161782 -0.00729815 -0.00327122 4.17701e-08 6.65346e-06 
-0.00354045 -0.0860247 0.228068 -0.0732528 -0.26146 0.102342 734 1885 0 0.00448114 -0.00395785 -0.0215269 5.14751e-08 8.20092e-06 
-0.201223 -0.0571429 -0.00840574 -0.377141 -0.189124 0.320257 1582 606 0 -0.00510112 -0.00623798 -0.012868 1.2513e-07 1.9965e-05 
0.323045 -0.290863 0.17656 0.521216 1.29323 -0.588395 2012 158 0 -0.0162499 0.0410326 0.0110718 1.28315e-07 2.04743e-05 
0.323045 -0.290863 0.17656 0.163759 -0.315437 0.0749683 2012 2229 0 0.00331965 -0.0106023 -0.00849769 1.13042e-07 1.80319e-05 
-0.77663 0.228854 0.49495 -0.35865 -0.0704733 0.643582 987 698 0 0.0106395 -0.026558 -0.0632213 3.48292e-07 5.58218e-05 
0.0385599 -0.173235 0.329917 -0.0629317 0.611857 0.894852 310 1874 0 -0.00219753 0.0318685 -0.0205819 1.61099e-07 2.57224e-05 
-0.0732528 -0.26146 0.102342 -0.00766897 -0.0162588 -0.113211 1885 235 0 0.0103333 -0.000276143 -0.0111286 9.73573e-08 1.5525e-05 
-0.0732528 -0.26146 0.102342 -0.18666 -0.159737 0.0942227 1885 264 0 -0.00712257 0.000128722 -0.00314653 6.11681e-08 9.74708e-06 
-0.0785007 -0.042146 0.114215 -0.0257143 -0.121553 0.188623 813 1152 0 -0.00116919 -0.0016149 -0.00391468 4.64485e-08 7.39935e-06 
-0.387034 -0.209297 0.290798 -0.377141 -0.189124 0.320257 930 606 0 -0.0528988 -0.0300081 0.0178532 3.17112e-07 5.07923e-05 
-0.377141 -0.189124 0.320257 -0.359104 -0.126674 -0.0493855 606 795 0 -0.0522916 -0.0437241 0.02531 3.66468e-07 5.87567e-05 
-0.377141 -0.189124 0.320257 -0.297947 -0.027341 0.295776 606 793 0 0.0123516 -0.00686259 -0.00846973 1.40695e-07 2.24554e-05 
-0.377141 -0.189124 0.320257 -0.0600948 -0.16306 0.0396197 606 1666 0 0.0122427 0.00241146 -0.0253224 1.02428e-07 1.63354e-05 
-0.145693 -0.0632408 -0.0401378 -0.0892168 -0.119431 0.0712512 1570 1592 0 -0.0279884 -0.0396891 0.00468938 2.61499e-07 4.18376e-05 
-0.145693 -0.0632408 -0.0401378 -0.0600948 -0.16306 0.0396197 1570 1666 0 0.0218982 0.0162734 -0.015544 1.90432e-07 3.04239e-05 
0.163759 -0.315437 0.0749683 -0.0892168 -0.119431 0.0712512 2229 1592 0 0.00947494 0.000480654 -0.00130644 1.43875e-07 2.29643e-05 
0.163759 -0.315437 0.0749683 -0.0544454 0.194347 0.302913 2229 1557 0 -0.0123296 0.0171536 -0.000578389 8.53483e-08 1.36067e-05 
-0.0978553 -0.0466234 0.0754486 -0.297947 -0.027341 0.295776 948 793 0 -0.0223959 0.00532904 0.00610385 1.07888e-07 1.72079e-05 
-0.51382 0.289256 -0.0585018 0.168441 0.0695286 0.163348 1968 1158 0 0.114278 -0.0148451 -0.0817166 3.31348e-07 5.3088e-05 
-0.35865 -0.0704733 0.643582 -0.26614 -0.0687999 0.32559 698 1141 0 0.02903 -0.0213448 0.0156633 2.36056e-07 3.77477e-05 
-0.35865 -0.0704733 0.643582 -0.0629317 0.611857 0.894852 698 1874 0 0.00134467 0.0104815 -0.0107908 5.50064e-08 8.76415e-06 
-0.35865 -0.0704733 0.643582 -0.395887 0.0558164 0.574374 698 984 0 -0.00282927 -0.0248853 -0.0838122 3.71037e-07 5.94949e-05 
-0.0629317 0.611857 0.894852 0.174621 0.387314 1.95004 1874 494 0 -0.010646 0.00734007 0.0113053 1.0945e-07 1.74576e-05 
-0.0629317 0.611857 0.894852 0.385106 0.102344 0.699018 1874 959 0 -0.0162169 0.0137055 -0.0248689 2.54796e-07 4.07598e-05 
-0.00766897 -0.0162588 -0.113211 -0.0198647 -0.0991217 0.0145068 235 415 0 -0.00303567 -0.00846545 -0.00139438 7.67876e-08 1.22399e-05 
-0.26614 -0.0687999 0.32559 -0.18666 -0.159737 0.0942227 1141 264 0 0.023504 -0.0190529 0.00575766 1.38686e-07 2.21338e-05 
-0.0257143 -0.121553 0.188623 -0.0600948 -0.16306 0.0396197 1152 1666 0 0.00782805 -0.0144679 0.00223376 1.20272e-07 1.9188e-05 
-0.0600948 -0.16306 0.0396197 -0.0882456 -0.0533341 -0.0425484 1666 674 0 -0.000197121 -0.00139981 0.00039968 6.25748e-08 9.97151e-06 
-0.0600948 -0.16306 0.0396197 -0.323877 0.222155 0.288157 1666 1933 0 -0.0106736 0.00600821 -0.00224539 5.73765e-08 9.14219e-06 
-0.0600948 -0.16306 0.0396197 -0.0600469 -0.15029 0.138535 1666 1264 0 0.026804 -0.00398581 -0.0254452 2.27305e-07 3.63418e-05 
-0.0544454 0.194347 0.302913 -0.0158721 0.090504 0.289369 1557 1964 0 -0.00109602 0.0015656 -0.00649233 7.42456e-08 1.18341e-05 
-0.0544454 0.194347 0.302913 -0.107721 0.094105 0.363715 1557 1160 0 0.00546532 -0.000426657 -0.00869368 1.18195e-07 1.88558e-05 
0.168441 0.0695286 0.163348 0.036314 -0.0631198 0.349853 1158 1700 0 -0.00593966 0.00479273 -0.0132135 6.46156e-09 1.02852e-06 
0.036314 -0.0631198 0.349853 0.385106 0.102344 0.699018 1700 959 0 0.0105334 0.000536185 0.00928267 7.79454e-08 1.24247e-05 
0.390112 0.180069 0.0886155 0.307025 -0.0941232 0.34625 1296 460 0 -0.00311345 0.000577494 -5.61117e-05 1.00413e-07 1.60132e-05 
0.390112 0.180069 0.0886155 0.0452784 -0.116988 0.537458 1296 2006 0 -0.0107814 -0.00647023 0.0112257 2.1428e-08 3.41182e-06 
-0.0158721 0.090504 0.289369 0.00979307 -0.068034 0.411585 1964 295 0 -0.00378143 -0.00134692 -0.00681947 9.31974e-08 1.48604e-05 
-0.18666 -0.159737 0.0942227 -0.0600469 -0.15029 0.138535 264 1264 0 0.00411786 -0.00785086 -0.00461806 9.19806e-08 1.46661e-05 
-0.0198647 -0.0991217 0.0145068 0.0961091 -0.040611 0.113231 415 1064 0 0.000235679 -0.00779437 -0.00290741 1.00443e-07 1.60181e-05 
-0.0198647 -0.0991217 0.0145068 -0.0600469 -0.15029 0.138535 415 1264 0 -0.0103913 -0.00212943 -0.000275244 8.57141e-08 1.36652e-05 
-0.0600469 -0.15029 0.138535 -0.0470799 -0.0473548 0.143315 1264 1864 0 0.00418162 -0.0404924 -0.0119699 2.57543e-07 4.12014e-05 
-0.0600469 -0.15029 0.138535 0.00985516 -0.0701295 0.287291 1264 727 0 0.0132889 0.028385 -0.0146632 2.09918e-07 3.35502e-05 
-0.0770176 -0.0103958 0.244227 -0.0882456 -0.0533341 -0.0425484 807 674 0 0.00196134 -0.000797027 -0.000902539 3.72334e-08 5.93028e-06 
2.29783 2.35491 0.309762 -0.192651 0.0598917 0.21196 2192 1105 0 -0.00212415 -0.269523 0.117913 3.30593e-07 5.29663e-05 
0.385106 0.102344 0.699018 -0.0725339 -0.128339 -0.251401 959 806 0 -0.0158202 0.00953658 -0.0089675 7.11381e-09 1.13236e-06 
0.307025 -0.0941232 0.34625 0.0236137 -0.0184028 0.0404518 460 1121 0 0.0215385 0.0018228 -0.0124675 4.93106e-08 7.85574e-06 
0.307025 -0.0941232 0.34625 0.011777 0.0592338 0.135394 460 2204 0 0.00291994 -0.0241674 -0.0300333 1.76561e-07 2.82e-05 
-0.192651 0.0598917 0.21196 -0.395887 0.0558164 0.574374 1105 984 0 -0.0187734 -0.000703693 0.0122016 6.01581e-08 9.58595e-06 
-0.192651 0.0598917 0.21196 0.0452784 -0.116988 0.537458 1105 2006 0 0.00897171 -0.009249 -0.00516322 6.23312e-08 9.93265e-06 
-0.0420245 0.257299 0.29306 -0.395887 0.0558164 0.574374 1061 984 0 0.0149972 -0.0142899 0.0161403 1.89464e-07 3.02686e-05 
-0.0420245 0.257299 0.29306 0.158864 -0.109327 0.321554 1061 626 0 -0.00714778 0.0175651 -0.0233297 2.05764e-07 3.28835e-05 
0.0452784 -0.116988 0.537458 0.00985516 -0.0701295 0.287291 2006 727 0 0.0110928 -0.00975467 0.00540342 1.41669e-07 2.26112e-05 
0.0452784 -0.116988 0.537458 -0.00020059 -0.212984 0.65378 2006 1539 0 -0.00771612 0.00508445 -0.00538873 1.14902e-07 1.83292e-05 
-0.395887 0.0558164 0.574374 -0.00020059 -0.212984 0.65378 984 1539 0 0.00938039 -0.00373242 -0.0317994 2.12046e-07 3.38917e-05 
-0.395887 0.0558164 0.574374 -0.099004 0.0539901 0.492918 984 1960 0 -0.00478389 -0.0483039 -0.0427658 3.15821e-07 5.05843e-05 
0.0236137 -0.0184028 0.0404518 0.00985516 -0.0701295 0.287291 1121 727 0 -0.0311285 -0.0155927 0.000479779 2.13197e-07 3.40765e-05 
0.00985516 -0.0701295 0.287291 0.181145 0.0531392 0.230501 727 1466 0 -0.000612886 -0.000524065 -0.00157484 6.23346e-08 9.93319e-06 
-0.323877 0.222155 0.288157 -0.107721 0.094105 0.363715 1933 1160 0 0.00153906 0.00168459 0.000104193 5.28304e-08 8.41708e-06 
-0.323877 0.222155 0.288157 -0.224197 0.054725 0.35286 1933 1046 0 0.000912164 -0.000670393 -0.00157073 4.31976e-08 6.88103e-06 
0.00979307 -0.068034 0.411585 -0.139397 0.00559656 0.282461 295 2309 0 -0.00274103 -0.00662334 0.00498351 9.11309e-08 1.45303e-05 
0.00979307 -0.068034 0.411585 -0.099004 0.0539901 0.492918 295 1960 0 0.0120066 0.00217928 0.00309649 1.27852e-07 2.04003e-05 
-0.107721 0.094105 0.363715 -0.132443 0.0613749 0.390969 1160 1009 0 0.00698746 0.000101709 -0.016034 1.33745e-07 2.13432e-05 
0.116436 0.142911 0.0995735 0.181145 0.0531392 0.230501 57 1466 0 -0.000612382 0.000225194 0.000465051 1.47722e-08 2.35176e-06 
-0.00020059 -0.212984 0.65378 0.158864 -0.109327 0.321554 1539 626 0 -0.00359297 -0.00281982 -0.00792745 3.30095e-08 5.25708e-06 
-0.00020059 -0.212984 0.65378 -0.0518652 0.0278566 0.391439 1539 2290 0 0.0146336 -0.00437127 -0.0305905 1.84727e-07 2.95091e-05 
-0.00020059 -0.212984 0.65378 0.0253202 -0.0384387 0.503778 1539 2315 0 -0.0174909 -0.00429785 -0.00961816 1.42407e-07 2.27294e-05 
-0.099004 0.0539901 0.492918 -0.224197 0.054725 0.35286 1960 1046 0 0.00720039 -0.000852832 -0.00766559 1.08773e-07 1.73494e-05 
-0.099004 0.0539901 0.492918 -0.132443 0.0613749 0.390969 1960 1009 0 0.00265064 -0.0556772 -0.0132773 2.93873e-07 4.70481e-05 
-0.099004 0.0539901 0.492918 0.0253202 -0.0384387 0.503778 1960 2315 0 -0.000925926 0.00195287 -0.000936383 6.79022e-08 1.08216e-05 
-0.099004 0.0539901 0.492918 0.00543248 0.0860409 0.681896 1960 1894 0 -0.00463463 -0.00438821 -0.0130575 1.59685e-07 2.54959e-05 
0.0122756 -0.0870906 0.111746 -0.0379079 -0.0588369 0.057557 2085 2202 0 -0.000113664 -0.00393884 -0.00021443 4.51593e-08 7.1938e-06 
0.181145 0.0531392 0.230501 0.0810479 0.0740526 0.280019 1466 1715 0 0.00360783 -0.00491631 0.000120445 5.91019e-08 9.41744e-06 
-0.132443 0.0613749 0.390969 -0.225715 0.017182 0.069566 1009 1895 0 0.0157959 -0.0294762 0.00183892 1.95601e-07 3.12529e-05 
-0.132443 0.0613749 0.390969 -0.0306158 0.237313 0.280867 1009 2021 0 -0.0148624 -0.0254691 -0.0372776 2.62922e-07 4.20666e-05 
0.303762 0.193102 0.0192453 0.158864 -0.109327 0.321554 1136 626 0 0.0130764 -0.00589171 0.0116415 1.28865e-07 2.05624e-05 
0.303762 0.193102 0.0192453 0.0419648 -0.10117 0.179885 1136 392 0 -0.00844988 0.00144225 -0.000683858 5.53944e-08 8.82603e-06 
0.158864 -0.109327 0.321554 -0.0111233 -0.0898053 0.358495 626 483 0 -0.00140068 0.0191652 -0.0233209 1.91128e-07 3.05356e-05 
0.011777 0.0592338 0.135394 -0.0328992 0.0714516 0.33868 2204 410 0 -0.014307 -0.00562952 -0.0108818 1.27145e-07 2.02872e-05 
0.011777 0.0592338 0.135394 -0.244498 0.0160637 0.176084 2204 651 0 -0.0195581 -0.021929 -0.0124898 1.38886e-07 2.21658e-05 
-0.0328992 0.0714516 0.33868 -0.0518652 0.0278566 0.391439 410 2290 0 -0.0171908 -0.00458145 0.000537223 1.24431e-07 1.9853e-05 
-0.037215 0.038003 0.257683 0.0253202 -0.0384387 0.503778 909 2315 0 0.0201439 -0.00110343 -0.00953557 1.67315e-07 2.67183e-05 
-0.037215 0.038003 0.257683 -0.0350947 -0.0554748 0.34989 909 985 0 -0.00053278 -0.00536353 -0.0108093 9.24658e-08 1.47436e-05 
-0.244498 0.0160637 0.176084 -0.250331 -0.0645765 0.303174 651 572 0 -0.026795 -0.0202499 -0.00687928 2.08135e-07 3.3264e-05 
-0.250331 -0.0645765 0.303174 -0.224197 0.054725 0.35286 572 1046 0 -0.0269241 0.000699718 0.00164069 1.6507e-07 2.63586e-05 
-0.250331 -0.0645765 0.303174 -0.00643116 0.0983416 0.179977 572 170 0 0.0168529 -0.00684126 -0.00656789 1.09969e-07 1.75405e-05 
-0.250331 -0.0645765 0.303174 -0.0679452 -0.100396 0.327572 572 685 0 0.00452543 -0.00227912 -0.0011242 1.7194e-08 2.73745e-06 
-0.224197 0.054725 0.35286 -0.0518652 0.0278566 0.391439 1046 2290 0 0.000344637 -0.000421705 0.000344011 2.83338e-08 4.51201e-06 
-0.0120556 -0.0219505 0.333198 -0.0350947 -0.0554748 0.34989 2257 985 0 9.05536e-05 0.00372614 -0.00065309 5.54891e-08 8.84113e-06 
0.0810479 0.0740526 0.280019 -0.0751911 0.00648481 0.0110626 1715 2212 0 0.00104114 -0.00233705 -0.00821607 5.85756e-08 9.33349e-06 
-0.900096 0.786707 0.0322403 0.119978 -0.124063 0.341055 2164 136 0 -0.00617197 -0.00871891 0.00536345 1.55188e-07 2.47757e-05 
-0.900096 0.786707 0.0322403 0.0667328 0.358342 -0.181403 2164 627 0 0.0163762 0.0146811 -0.0264574 1.76663e-07 2.82164e-05 
-0.0518652 0.0278566 0.391439 0.060977 -0.0395035 0.314017 2290 175 0 -0.00601925 0.00352836 -0.0176394 1.42886e-07 2.2806e-05 
-0.0518652 0.0278566 0.391439 0.0430418 0.0174939 0.331661 2290 15 0 0.00200197 -0.0152459 -0.00688905 1.07127e-07 1.70864e-05 
-0.0350947 -0.0554748 0.34989 -0.0287632 -0.0310834 0.416966 985 760 0 2.31616e-05 -0.000685361 -0.000511556 3.76225e-08 5.99229e-06 
-0.0350947 -0.0554748 0.34989 0.042982 -0.0891255 0.307871 985 228 0 -0.00135226 -0.00282857 -0.00490964 6.04585e-08 9.63387e-06 
-0.0122158 -0.00434132 0.158417 -0.0679452 -0.100396 0.327572 226 685 0 -0.00264396 -0.00517313 0.00250585 1.4065e-08 2.23914e-06 
0.0132118 -0.00197717 0.15744 -0.0306158 0.237313 0.280867 961 2021 0 0.00066699 0.000693195 0.000103479 7.95158e-09 1.26573e-06 
0.0728081 0.0421972 0.290268 0.154554 -0.0319062 0.389887 2311 1852 0 -0.000366611 0.000201299 0.000513903 2.58496e-08 4.11621e-06 
0.0728081 0.0421972 0.290268 0.0508772 0.0716524 0.337489 2311 1426 0 -6.02738e-07 -4.50499e-06 0.000293959 2.66805e-08 4.24859e-06 
0.0728081 0.0421972 0.290268 0.00979774 0.0792855 0.300836 2311 2160 0 -0.00249002 0.00165204 -0.00349981 3.91859e-08 6.24151e-06 
-0.0306158 0.237313 0.280867 -0.014168 0.0542442 0.264363 2021 787 0 0.00170102 -0.00160804 0.00127639 1.33445e-08 2.12441e-06 
-0.0306158 0.237313 0.280867 0.0405331 -0.00473974 0.272386 2021 952 0 -0.0197134 -0.0161533 -0.040157 2.45491e-07 3.92638e-05 
-0.0751911 0.00648481 0.0110626 0.0157802 -0.0237978 0.00105128 2212 86 0 0.0013246 0.000595171 -0.000388932 3.67692e-09 5.85242e-07 
-0.283607 -0.188656 0.30263 0.0233818 -0.0568154 0.239981 72 42 0 -0.00134861 -0.00219377 -0.00550298 5.0519e-08 8.04844e-06 
0.603608 -0.0390362 0.0770405 0.0667057 0.331123 -0.533276 1076 430 0 0.00652801 0.00504493 -0.00296771 7.72168e-08 1.23084e-05 
-0.00321649 -0.221246 0.265774 0.0233818 -0.0568154 0.239981 1041 42 0 0.00182245 1.48579e-05 -0.00459593 2.24832e-08 3.57992e-06 
-0.0679452 -0.100396 0.327572 0.00442032 0.0417092 0.236594 685 2299 0 -0.000336739 -0.000226106 -0.0010814 2.29279e-08 3.65076e-06 
0.060977 -0.0395035 0.314017 0.0901428 -0.154444 0.332813 175 609 0 -0.0101756 -0.00227952 -0.0164825 1.46835e-07 2.34381e-05 
0.0430418 0.0174939 0.331661 -0.0224318 0.00291044 0.183393 15 1511 0 0.0015268 -0.00535377 -0.000558388 7.45432e-08 1.18816e-05 
0.0430418 0.0174939 0.331661 -0.014168 0.0542442 0.264363 15 787 0 -0.0015917 0.000736488 -0.000401651 5.11845e-09 8.1471e-07 
0.0430418 0.0174939 0.331661 0.00442032 0.0417092 0.236594 15 2299 0 0.00236448 0.000100199 -0.00372104 4.17285e-08 6.64682e-06 
-0.0287632 -0.0310834 0.416966 -0.014168 0.0542442 0.264363 760 787 0 0.000821247 -0.00147936 -0.000553789 4.63456e-08 7.38294e-06 
-0.0287632 -0.0310834 0.416966 0.0508772 0.0716524 0.337489 760 1426 0 0.00110093 0.00149172 6.75632e-06 1.90283e-08 3.0296e-06 
0.00859323 0.124753 0.0552208 0.0157802 -0.0237978 0.00105128 2113 86 0 -0.000639127 -0.00539339 -0.000989261 1.43368e-08 2.28243e-06 
-0.0224318 0.00291044 0.183393 0.0446266 -0.0254436 0.0793363 1511 1794 0 0.00219562 -0.00486633 -0.00402806 4.47593e-08 7.13002e-06 
-0.014168 0.0542442 0.264363 -0.0241082 -0.0113522 0.0540378 787 747 0 0.00211769 -0.00475985 0.00164648 6.12682e-08 9.76306e-06 
-0.014168 0.0542442 0.264363 -0.0128265 -0.0667918 0.305316 787 2256 0 -9.46677e-05 -2.55106e-05 2.49342e-05 6.24004e-09 9.93256e-07 
-0.014168 0.0542442 0.264363 0.0152382 0.0899337 0.209784 787 294 0 -0.000953608 0.00180931 -0.00501302 2.9851e-08 4.75376e-06 
0.0405331 -0.00473974 0.272386 0.0508772 0.0716524 0.337489 952 1426 0 -0.00829589 0.0104573 -0.0146793 1.26425e-07 2.0172e-05 
0.0405331 -0.00473974 0.272386 -0.0557574 0.0117654 0.254304 952 886 0 -0.0020709 -0.00559099 -0.0117604 9.00979e-08 1.43653e-05 
0.00442032 0.0417092 0.236594 0.0099372 0.0570539 0.169688 2299 713 0 0.00257557 0.00083094 7.21244e-05 2.67162e-08 4.25428e-06 
0.00442032 0.0417092 0.236594 0.0127675 -0.0784934 0.217411 2299 2291 0 -0.00320413 0.00184995 -0.00301305 5.94414e-08 9.47161e-06 
0.00442032 0.0417092 0.236594 0.0206916 0.0429003 0.19524 2299 977 0 0.00347804 -0.00188088 0.00111356 3.12472e-08 4.97624e-06 
0.00442032 0.0417092 0.236594 -0.0451728 -0.0514018 0.230983 2299 736 0 -0.0062971 0.00038328 -0.00151776 1.91761e-08 3.05314e-06 
-0.0128265 -0.0667918 0.305316 0.0497935 -0.0283125 0.216298 2256 1389 0 0.000347638 -0.00109034 -0.00225245 2.05734e-08 3.27569e-06 
0.0508772 0.0716524 0.337489 0.0341685 -0.127127 0.230981 1426 1398 0 0.0084342 0.00570699 -0.00490416 1.11727e-07 1.78216e-05 
0.0508772 0.0716524 0.337489 -0.0557574 0.0117654 0.254304 1426 886 0 0.000909028 -0.00318597 -0.00529438 3.41241e-08 5.43471e-06 
0.0157802 -0.0237978 0.00105128 0.0206916 0.0429003 0.19524 86 977 0 -0.00243038 -0.000954146 0.00294818 1.74301e-08 2.77504e-06 
0.0446266 -0.0254436 0.0793363 0.0206916 0.0429003 0.19524 1794 977 0 0.00282411 0.0062359 -0.00697862 1.00847e-07 1.60826e-05 
0.0233818 -0.0568154 0.239981 -0.00155372 0.00597611 0.158188 42 189 0 0.00211129 -0.0080874 -0.00547857 8.62276e-08 1.37472e-05 
0.388393 -0.161241 -0.0487291 -0.067686 -0.0865256 0.291978 1024 2269 0 -0.00248101 -0.00799668 -0.00344586 1.1092e-07 1.76926e-05 
0.252373 -0.0277511 0.219522 0.0901428 -0.154444 0.332813 671 609 0 0.00750682 -0.00232763 0.00504227 7.75569e-08 1.23627e-05 