ITEM: TIMESTEP
18950000
ITEM: NUMBER OF ENTRIES
1208
ITEM: BOX BOUNDS ff ff ff
-0.01 0.45
-0.15 0.15
-0.08 0.1
ITEM: ENTRIES c_ppc[1] c_ppc[2] c_ppc[3] c_ppc[4] c_ppc[5] c_ppc[6] c_ppc[7] c_ppc[8] c_ppc[9] c_ppc[10] c_ppc[11] c_ppc[12] c_ppc[13] c_ppc[14] 
-1.34237e-15 -3.71047e-15 4.57797e-14 1.66298e-16 -8.77384e-16 4.61793e-14 665 23 0 -0.31959 -1.35426 -0.225723 2.37285e-06 0.00039739 
-6.06587 0.708309 6.98592 -0.322605 -1.35359 1.58212 1980 918 0 0.573967 -0.457328 -0.805257 1.11999e-06 0.000182411 
0.139077 0.223639 -0.175649 0.0567939 0.156808 -0.0398592 1912 1222 0 -0.00108442 -0.0151263 -0.00242879 1.20398e-07 1.9208e-05 
-0.37705 0.152896 -0.231165 0.00729851 -0.0914318 -0.071643 917 425 0 -0.00139375 -0.0042807 -0.0139869 1.1842e-07 1.88918e-05 
-0.854572 -0.235816 -0.0655009 -0.446187 0.376246 -0.42522 1284 369 0 0.00198512 -0.000853568 0.000403686 5.65164e-08 9.005e-06 
-0.854572 -0.235816 -0.0655009 -0.324963 0.148912 0.0861056 1284 600 0 0.00799498 -0.0244788 -0.0163513 2.63798e-07 4.22075e-05 
0.014428 -0.148427 -0.0333372 -0.324963 0.148912 0.0861056 1297 600 0 -0.0126069 0.0207391 0.012094 6.00261e-08 9.56489e-06 
0.014428 -0.148427 -0.0333372 0.0149514 -0.146047 -0.0126617 1297 1411 0 0.00187327 -0.00187221 0.000236483 2.70694e-08 4.31055e-06 
0.014428 -0.148427 -0.0333372 0.00218902 -0.13164 -0.00837766 1297 61 0 -0.000601514 -0.000752085 0.000275312 1.7331e-08 2.75926e-06 
0.014428 -0.148427 -0.0333372 -0.0153413 -0.110238 -0.0169423 1297 854 0 -4.52492e-05 -0.00148448 -0.000659581 1.84985e-08 2.94522e-06 
-0.00824896 -0.1207 0.00442851 0.0149514 -0.146047 -0.0126617 1505 1411 0 -0.000606823 0.000322467 -0.000416042 2.75907e-08 4.39361e-06 
0.00573513 -0.370796 -0.0539577 -0.00168132 -0.334905 -0.0379084 1268 1535 0 -0.000643203 -0.000417488 0.000360726 1.34901e-08 2.14759e-06 
-0.324963 0.148912 0.0861056 -0.129942 -0.0677776 0.11426 600 300 0 0.0257955 -0.0231005 -0.0277824 1.98617e-07 3.17368e-05 
0.0149514 -0.146047 -0.0126617 -0.129942 -0.0677776 0.11426 1411 300 0 -0.0101699 0.00489 0.00777087 3.58599e-08 5.71136e-06 
0.0149514 -0.146047 -0.0126617 0.00229931 -0.142372 -0.0172981 1411 1387 0 0.000300081 -2.01899e-06 -0.000186247 1.41759e-08 2.25681e-06 
0.00227488 -0.151492 -3.06851e-05 0.00229931 -0.142372 -0.0172981 1929 1387 0 -0.000560537 -7.62925e-05 4.91525e-05 1.52531e-08 2.42834e-06 
0.301951 0.0695081 0.250078 -0.276544 -0.00812082 -0.00579139 965 814 0 -0.00285117 -0.00530025 -0.000724045 2.98026e-08 4.74605e-06 
-0.61818 -0.192215 -0.0324888 -0.506399 -0.0405314 0.184318 899 1471 0 -0.000705371 0.00337817 0.00682149 5.29959e-08 8.44347e-06 
-0.61818 -0.192215 -0.0324888 -0.305247 0.0835604 -0.000639388 899 1082 0 0.00523856 -0.0144882 9.13967e-05 1.69254e-07 2.7029e-05 
-0.61818 -0.192215 -0.0324888 -0.214922 -0.0789606 -0.423294 899 906 0 0.0260829 0.00322847 -0.0519385 1.6666e-07 2.66134e-05 
-0.276544 -0.00812082 -0.00579139 -0.305247 0.0835604 -0.000639388 814 1082 0 -0.013129 0.0164787 -0.00538631 7.62741e-08 1.21579e-05 
-0.276544 -0.00812082 -0.00579139 0.0186122 0.101343 0.0154705 814 85 0 0.0237958 0.00562244 -0.0123332 1.14462e-07 1.82588e-05 
0.0824822 0.0260958 -0.108035 0.00691789 0.029021 -0.0168945 2112 2318 0 0.00109794 -0.00613481 6.68402e-05 6.74033e-08 1.0742e-05 
-0.305247 0.0835604 -0.000639388 -0.197364 -0.0128172 0.0695509 1082 2115 0 0.00200906 -0.0166646 -0.00355456 8.68538e-08 1.38472e-05 
-0.168695 0.134556 0.000161789 -0.0235732 0.158912 0.0302985 1499 311 0 -0.00214153 -0.00309622 0.000935592 7.26745e-08 1.15833e-05 
-0.168695 0.134556 0.000161789 -0.197364 -0.0128172 0.0695509 1499 2115 0 0.0121228 -0.00355904 9.12027e-05 1.09787e-07 1.75115e-05 
-0.168695 0.134556 0.000161789 -0.275296 0.0835746 -0.0312861 1499 792 0 -0.00515274 -0.00114539 0.00171965 1.97155e-08 3.13906e-06 
-0.168695 0.134556 0.000161789 -0.104249 -0.0439296 0.0684857 1499 2144 0 0.00112614 -0.00698647 0.000517393 2.22885e-08 3.5489e-06 
-0.197364 -0.0128172 0.0695509 -0.184235 0.0476471 0.0166811 2115 796 0 0.0121693 -0.0184148 -0.00056492 1.67358e-07 2.67251e-05 
0.00691789 0.029021 -0.0168945 -0.0198453 0.129644 -0.0121676 2318 1901 0 -0.00816974 -0.00503247 -0.00047838 9.85054e-08 1.57085e-05 
-0.184235 0.0476471 0.0166811 -0.0824859 0.230211 0.000511843 796 520 0 0.0155532 -0.0243617 -0.000128911 2.12893e-07 3.40277e-05 
-0.0435155 -0.0504926 -0.033789 -0.109646 -0.065733 -0.00311743 1335 2310 0 1.22168e-05 -5.37062e-06 0.000332027 2.78006e-08 4.42705e-06 
-0.0198453 0.129644 -0.0121676 -0.0824859 0.230211 0.000511843 1901 520 0 -0.0108396 -0.00522435 0.000992042 1.02472e-07 1.63422e-05 
-0.0198453 0.129644 -0.0121676 -0.185752 0.213709 0.0208255 1901 1958 0 -0.000491223 0.00167037 -0.00058801 9.70724e-09 1.54525e-06 
-0.0198453 0.129644 -0.0121676 -0.0539571 -0.0085835 0.0810874 1901 121 0 0.000445603 -0.000608453 0.000226338 1.16546e-08 1.85532e-06 
-0.0824859 0.230211 0.000511843 -0.033066 -0.0378861 0.00282853 520 1680 0 -0.00131378 -0.000838059 0.000313941 3.16439e-08 5.03946e-06 
-0.0824859 0.230211 0.000511843 -0.185752 0.213709 0.0208255 520 1958 0 0.0113236 0.00251516 0.00164072 1.04839e-07 1.67206e-05 
-0.0824859 0.230211 0.000511843 -0.0650476 0.252082 -0.0165002 520 241 0 -0.00898458 -0.0293877 -0.00390044 1.9678e-07 3.1442e-05 
-0.0133187 -0.017183 -0.00587589 -0.185752 0.213709 0.0208255 1445 1958 0 -0.00570187 0.000114752 0.000334497 4.05921e-08 6.46566e-06 
-0.033066 -0.0378861 0.00282853 -0.0584582 -0.00388075 -0.135983 1680 58 0 -0.00570469 -0.00200165 -0.00271838 6.35905e-08 1.01336e-05 
0.027074 0.0409114 -0.00349253 -0.0163392 0.059693 0.0066882 529 197 0 -9.9372e-05 0.000434756 -0.000758106 1.97474e-08 3.14413e-06 
-0.0650476 0.252082 -0.0165002 0.0184116 -0.00152834 0.0168063 241 1216 0 -0.00451421 -0.00663536 0.00118069 6.06303e-08 9.66127e-06 
-0.0650476 0.252082 -0.0165002 -0.00682938 0.148862 0.0359707 241 210 0 -0.00151271 -0.0229477 -0.0121074 1.61809e-07 2.58361e-05 
-0.0584582 -0.00388075 -0.135983 -0.0019637 -0.0266293 -0.0109831 58 935 0 0.000798047 -0.00409306 0.00154371 4.4292e-08 7.05551e-06 
-0.0166703 0.0497034 -0.0029154 -0.0944417 0.095065 -0.00868079 214 1308 0 -0.00106347 0.00126392 -0.00239818 2.9202e-08 4.65035e-06 
0.0184116 -0.00152834 0.0168063 -0.0019637 -0.0266293 -0.0109831 1216 935 0 -0.00296409 0.002319 -0.0010647 2.27089e-08 3.61588e-06 
-0.214922 -0.0789606 -0.423294 -0.214928 -0.172506 -0.0864314 906 1533 0 -0.000854741 -0.00126314 0.00209628 1.65786e-08 2.63944e-06 
-0.214922 -0.0789606 -0.423294 1.37571 1.4134 -0.136396 906 598 0 0.0304959 0.0110853 -0.0441676 2.73737e-07 4.38065e-05 
0.0186122 0.101343 0.0154705 -0.155338 0.602757 -0.300071 85 20 0 0.0238987 0.0294041 -0.0264168 1.91955e-07 3.06681e-05 
0.0186122 0.101343 0.0154705 0.0142885 0.100755 0.00964149 85 1352 0 -0.00809773 -0.0118363 -0.000896995 1.05347e-07 1.68019e-05 
-0.168753 0.0898868 -0.087849 -0.109646 -0.065733 -0.00311743 2108 2310 0 -0.0180028 -0.0096923 -0.0016576 1.38996e-07 2.21834e-05 
-0.168753 0.0898868 -0.087849 -0.24107 0.209208 0.00940659 2108 730 0 -0.0102971 0.000263255 -0.0164012 1.34641e-07 2.14864e-05 
-0.168753 0.0898868 -0.087849 -0.21368 0.438951 -0.268151 2108 333 0 0.00654784 0.00440037 -0.00802389 6.00018e-08 9.561e-06 
0.0142885 0.100755 0.00964149 -0.0398137 0.155118 -0.128097 1352 708 0 -0.00985421 -0.0111272 -0.00109805 1.12323e-07 1.79169e-05 
-0.0398137 0.155118 -0.128097 -0.0813888 0.110117 0.0520318 708 1662 0 -0.0169851 -0.00765229 -0.000865948 1.32812e-07 2.11939e-05 
-0.0398137 0.155118 -0.128097 -0.0722456 0.128473 -0.13998 708 542 0 0.00416424 -0.000198822 -0.00255068 5.34767e-08 8.52016e-06 
-0.102923 -0.0181581 0.0254392 -0.0813888 0.110117 0.0520318 476 1662 0 0.022097 0.00223632 -0.00866934 1.63056e-07 2.6036e-05 
-0.0539571 -0.0085835 0.0810874 -0.0859814 0.116394 0.0411689 121 2308 0 -0.00166533 -0.00182853 -0.000677536 4.04145e-08 6.43735e-06 
-0.0163392 0.059693 0.0066882 -0.128616 0.0446677 0.0217805 197 983 0 -0.000568484 0.000463157 -0.000884987 2.57709e-08 4.10367e-06 
-0.0944417 0.095065 -0.00868079 -0.0859814 0.116394 0.0411689 1308 2308 0 -0.00385446 0.00299197 0.00040107 5.53683e-08 8.82186e-06 
-0.0944417 0.095065 -0.00868079 -0.0887708 0.026659 -0.0792732 1308 602 0 0.00305519 0.00266115 -0.00581208 5.61724e-08 8.95013e-06 
-0.0156813 0.27558 -1.39827 0.0339596 0.517031 0.84539 1863 2185 0 0.00367153 0.0274367 -0.0460635 4.79784e-07 7.71031e-05 
0.0929567 -0.204544 0.359435 0.118623 0.0817222 0.0146924 1129 639 0 -3.10494e-05 0.004283 0.00116182 4.23239e-08 6.74174e-06 
0.0929567 -0.204544 0.359435 -0.132887 -0.0360089 0.0972279 1129 1904 0 0.0091487 -0.00853755 -0.00323321 1.58461e-07 2.52998e-05 
-0.155338 0.602757 -0.300071 -0.475668 0.318245 -0.18446 20 823 0 -0.0313211 0.0671447 -0.0269002 4.00672e-07 6.42856e-05 
-0.155338 0.602757 -0.300071 -0.0374981 -0.0803621 0.00036409 20 2100 0 0.0168269 -0.0463612 0.00830863 8.04067e-08 1.28177e-05 
-0.214928 -0.172506 -0.0864314 0.00485112 -0.0271218 -0.0503088 1533 492 0 0.0100378 -0.00749264 -0.00514478 8.24186e-08 1.31389e-05 
-0.0202639 0.0187156 0.0143554 -0.00774215 -0.0192702 0.000295766 1226 29 0 -0.000517669 -0.00599935 0.00224858 5.17728e-08 8.2484e-06 
-0.0202639 0.0187156 0.0143554 -0.0374981 -0.0803621 0.00036409 1226 2100 0 -0.00334775 0.00642162 0.000127435 7.32878e-08 1.16812e-05 
-0.0813888 0.110117 0.0520318 -0.0859814 0.116394 0.0411689 1662 2308 0 0.0063024 -0.00315358 0.000723981 7.63459e-08 1.21693e-05 
-0.0813888 0.110117 0.0520318 0.114011 0.259611 -0.0566086 1662 190 0 0.00584095 0.00119864 -0.0035894 1.16604e-08 1.85624e-06 
-0.0859814 0.116394 0.0411689 -0.0263109 -0.0091788 0.0302933 2308 1090 0 -7.16444e-05 -0.000251144 -0.000376353 7.63479e-09 1.2153e-06 
-0.0363259 0.145597 -0.00389035 -0.0730798 0.138512 -0.0358367 2296 1388 0 -0.000550651 0.00247556 -1.29403e-05 2.80572e-08 4.46794e-06 
0.494806 -0.60741 -0.992771 -0.554385 -1.37819 -0.623044 1907 1070 0 0.0352654 0.0765971 -0.0732121 6.8739e-07 0.00011094 
0.0339596 0.517031 0.84539 1.37571 1.4134 -0.136396 2185 598 0 -0.0481837 0.00530406 -0.0534933 5.64228e-07 9.08309e-05 
1.37571 1.4134 -0.136396 -0.222199 0.613954 -0.10014 598 1391 0 -0.0553676 -0.0239321 -0.024278 1.3231e-07 2.11136e-05 
0.00485112 -0.0271218 -0.0503088 -0.0374981 -0.0803621 0.00036409 492 2100 0 0.00420386 -0.000932941 -0.000585568 6.44515e-08 1.0271e-05 
-0.132887 -0.0360089 0.0972279 -0.24107 0.209208 0.00940659 1904 730 0 0.0258936 -0.0212973 0.00205913 2.63356e-07 4.21364e-05 
-0.132887 -0.0360089 0.0972279 -0.272039 0.105929 0.111472 1904 2123 0 -7.71776e-05 0.000979426 0.000684009 2.50006e-08 3.98095e-06 
-0.0374981 -0.0803621 0.00036409 0.0849209 -0.15389 0.0845752 2100 1081 0 1.34847e-05 -0.000449978 0.000520317 3.34353e-08 5.32494e-06 
-0.24107 0.209208 0.00940659 -0.21368 0.438951 -0.268151 730 333 0 0.0296277 -0.0202919 -0.00230268 2.35083e-07 3.75913e-05 
-0.24107 0.209208 0.00940659 0.166796 0.278043 0.155444 730 675 0 -0.00340562 0.00211623 -0.0117082 1.47433e-07 2.35339e-05 
-0.272039 0.105929 0.111472 -0.0105311 0.106293 -0.120191 2123 2305 0 -0.000849783 -0.00590095 0.00137144 7.74232e-08 1.23413e-05 
-0.186462 0.296744 -0.136966 -0.21368 0.438951 -0.268151 1910 333 0 -0.0316137 0.0111544 0.0142616 2.19721e-07 3.5124e-05 
-0.186462 0.296744 -0.136966 -0.214946 0.261816 0.0533485 1910 647 0 0.015551 -0.00651589 -0.00461549 1.37499e-07 2.19439e-05 
-0.186462 0.296744 -0.136966 0.11913 0.36979 -0.0703747 1910 945 0 -0.0017905 0.0008328 -0.00033288 9.7843e-08 1.56026e-05 
-0.186462 0.296744 -0.136966 0.0390086 -0.0285443 -0.00821512 1910 531 0 0.0238421 0.00205484 -0.0084737 1.6279e-07 2.59933e-05 
-0.186462 0.296744 -0.136966 0.000825313 0.125956 -0.0274606 1910 77 0 -0.000662591 -0.00368163 -0.00264932 5.40246e-08 8.60754e-06 
-0.0105311 0.106293 -0.120191 -0.0730798 0.138512 -0.0358367 2305 1388 0 -0.000387934 -0.00462922 0.00197252 5.70619e-08 9.09201e-06 
-0.0722456 0.128473 -0.13998 -0.0373837 0.0805043 -0.0104312 542 2093 0 -4.62671e-05 6.66215e-06 5.80781e-05 3.07398e-08 4.89539e-06 
-0.0887708 0.026659 -0.0792732 -0.017076 0.0140423 0.0438095 602 1654 0 0.00206921 -0.00733421 0.00385097 6.92892e-08 1.1043e-05 
-0.0887708 0.026659 -0.0792732 -0.0373837 0.0805043 -0.0104312 602 2093 0 -0.000982206 0.00979654 -0.000131918 7.11758e-08 1.13441e-05 
-6.36398e-05 0.0143487 -0.00889243 -0.0263673 -0.0853986 -0.0446168 1913 2119 0 -0.000534895 0.00352275 -0.0135364 1.1812e-07 1.88438e-05 
-0.017076 0.0140423 0.0438095 -0.0306311 -0.00734584 0.0704769 1654 168 0 0.00046653 -0.000642871 0.000285574 2.89674e-09 4.61057e-07 
-0.012033 0.0288479 0.11202 -0.0346214 0.04706 0.182665 294 787 0 -0.00108461 0.00161947 -0.000561229 1.35766e-08 2.16136e-06 
-0.012033 0.0288479 0.11202 0.0130361 -0.00241653 0.191372 294 952 0 -0.0014798 0.00414781 0.00199886 2.85731e-08 4.55014e-06 
-0.0293158 0.0828402 0.353186 0.0913724 0.012023 0.142019 959 1061 0 0.0131698 -0.00779922 0.0143982 1.65314e-07 2.63976e-05 
0.107938 1.13675 -0.049975 -0.222199 0.613954 -0.10014 1023 1391 0 0.0307967 -0.0310089 0.00873807 2.62892e-07 4.20618e-05 
-0.222199 0.613954 -0.10014 0.00187703 0.152805 0.14589 1391 1224 0 0.0228224 -0.00656418 0.00253659 5.3694e-08 8.55482e-06 
0.237279 0.17821 -0.0679253 0.100839 0.253998 -0.0814964 251 339 0 0.00169663 -0.00277681 -0.00196892 7.14433e-08 1.13868e-05 
-0.0263673 -0.0853986 -0.0446168 0.0176604 -0.0676313 -0.0104003 2119 1665 0 0.000747756 -0.0160696 -0.0029044 1.32265e-07 2.11064e-05 
-0.0263673 -0.0853986 -0.0446168 -0.15951 -0.00119163 -0.0528984 2119 1765 0 -0.00625771 0.0119998 -0.00142419 7.83574e-08 1.24905e-05 
-0.0352198 0.0710694 -0.016661 -0.0525016 -0.00834476 0.0640982 1056 1122 0 -0.000903721 -0.00674262 -6.05325e-05 5.34906e-08 8.52237e-06 
-0.0352198 0.0710694 -0.016661 0.138648 0.106481 -0.0449487 1056 852 0 0.00564633 0.0077892 -0.00599115 6.49681e-08 1.03534e-05 
0.0849209 -0.15389 0.0845752 0.0390086 -0.0285443 -0.00821512 1081 531 0 0.00424771 0.00151321 -0.000926797 4.85775e-08 7.73883e-06 
0.0849209 -0.15389 0.0845752 0.0981812 0.306305 0.114411 1081 1702 0 -4.28846e-05 0.000200882 -0.000439253 3.13518e-08 4.99292e-06 
0.000825313 0.125956 -0.0274606 0.0359062 0.283282 -0.0701614 77 1804 0 -0.000190535 -0.00132004 -0.00065978 3.89435e-08 6.20286e-06 
0.100839 0.253998 -0.0814964 0.0560507 0.296869 -0.0128668 339 1049 0 0.00229328 -0.00624299 -0.000880088 9.33414e-08 1.48834e-05 
0.192372 0.218511 0.0352572 0.0720278 0.232245 0.0388098 2090 771 0 -0.0101713 -0.00642066 0.0167371 6.54901e-08 1.04367e-05 
0.192372 0.218511 0.0352572 0.154085 0.116925 0.0960985 2090 2324 0 0.00197625 0.00440319 -0.00251237 8.25069e-08 1.3153e-05 
-0.106576 -0.0878294 0.0294827 0.138648 0.106481 -0.0449487 1943 852 0 -0.000963736 0.00356844 -0.00203821 4.555e-08 7.2561e-06 
-0.0381712 -0.754238 -1.20395 6.49601 6.78716 -29.0162 1947 1186 0 -0.672612 1.97116 -0.326472 7.52452e-07 0.000121605 
0.0914555 0.183798 -0.0538635 0.154085 0.116925 0.0960985 847 2324 0 0.00265878 -0.0148147 0.0011355 1.09609e-07 1.7483e-05 
0.138648 0.106481 -0.0449487 0.273832 0.0414415 -0.0308949 852 1139 0 0.000915185 0.00246286 -0.00665534 8.42308e-08 1.34283e-05 
0.000969828 0.16811 -0.0798079 -0.0492979 0.255271 -0.0852761 734 1194 0 -0.000137148 0.0170135 -0.0112235 1.27755e-07 2.03848e-05 
0.0359062 0.283282 -0.0701614 -0.159511 0.119031 0.134005 1804 1568 0 -0.00186879 -0.0038663 -0.0016142 5.12689e-08 8.16803e-06 
0.269427 -0.00177087 0.0921082 0.0574543 0.0754705 0.137747 670 527 0 -0.0143645 -0.0210312 -0.00143257 1.56946e-07 2.50571e-05 
-0.0492979 0.255271 -0.0852761 -0.0895573 0.0451643 -0.3157 1194 1363 0 -0.00165013 0.0108606 -0.00474505 9.61728e-08 1.53358e-05 
0.273832 0.0414415 -0.0308949 0.131275 0.187277 0.0807357 1139 429 0 -0.000202502 -0.000329969 0.000224382 3.71041e-08 5.90966e-06 
0.273832 0.0414415 -0.0308949 -0.0262363 0.326826 -0.0593763 1139 2084 0 0.0013799 0.00233198 -0.00285442 7.16992e-08 1.14276e-05 
0.131275 0.187277 0.0807357 0.049053 0.0792511 0.103411 429 2080 0 3.70416e-05 -0.000167697 0.000282768 6.74419e-09 1.07352e-06 
-0.0784212 -0.0429265 0.0377462 -0.0323551 -0.0210438 0.0282658 2216 795 0 -0.000351748 0.000397236 0.000148274 1.2706e-08 2.02274e-06 
0.251369 4.99216 -5.33357 -2.99016 6.42776 1.23414 486 2355 0 0.0129798 0.00861431 -0.0396583 1.17593e-06 0.000191752 
-0.0895573 0.0451643 -0.3157 -0.108105 0.055699 -0.224589 1363 2046 0 -0.00649331 0.0124569 -0.00877208 1.3768e-07 2.19727e-05 
-0.0262363 0.326826 -0.0593763 -0.159511 0.119031 0.134005 2084 1568 0 -0.00789479 -0.0086969 0.00115169 5.18907e-10 8.25875e-08 
-0.0323551 -0.0210438 0.0282658 0.049053 0.0792511 0.103411 795 2080 0 -0.000905106 0.0072992 0.000333944 5.2153e-08 8.30903e-06 
-0.108105 0.055699 -0.224589 -0.119148 0.0519362 -0.015529 2046 430 0 -0.000549137 -0.000406038 0.00676054 7.85676e-09 1.25064e-06 
-0.108105 0.055699 -0.224589 0.033635 0.176368 -0.177388 2046 593 0 -0.00230486 0.00425095 -0.00345092 7.49462e-08 1.19459e-05 
0.252261 0.349119 -0.00879277 -0.119148 0.0519362 -0.015529 939 430 0 0.00436324 -0.00253876 -0.00277626 8.41513e-08 1.34156e-05 
0.252261 0.349119 -0.00879277 -0.24596 0.568166 -0.133494 939 995 0 0.00217204 0.0161326 -0.0241221 1.31527e-07 2.09882e-05 
-0.119148 0.0519362 -0.015529 -0.0727017 -0.0162452 0.200862 430 1862 0 0.00229397 -0.001658 0.000766446 1.07766e-08 1.71552e-06 
0.134569 -0.0474606 -0.0366719 -0.0269869 0.141362 0.178811 1968 987 0 -0.00602819 0.00138779 -0.00682024 8.60173e-08 1.37136e-05 
0.049053 0.0792511 0.103411 0.0435248 0.00873456 0.0685397 2080 1141 0 0.00120619 -0.000865387 -0.00262032 3.29518e-08 5.24789e-06 
0.049053 0.0792511 0.103411 0.0656745 0.00645292 0.203158 2080 1570 0 -0.000192489 -0.000187531 0.00136774 1.85779e-08 2.95786e-06 
-0.343518 0.129166 0.0169028 -0.0298796 -0.391367 -0.283252 1125 1742 0 0.000426584 0.0165882 -0.00978708 2.27756e-07 3.64142e-05 
0.0990196 0.05619 0.116963 -0.00416943 0.021714 0.0661579 1158 1724 0 0.00129868 -5.31543e-05 -0.00260161 5.25945e-08 8.37946e-06 
-0.0269869 0.141362 0.178811 0.0435248 0.00873456 0.0685397 987 1141 0 0.00555784 -0.00113161 -0.00292035 1.99099e-08 3.17001e-06 
-0.0269869 0.141362 0.178811 -0.0466982 0.019491 0.185761 987 813 0 -0.00663215 -0.00192182 -0.00563915 8.25293e-08 1.31566e-05 
0.0464056 0.0387401 0.0561616 0.0435248 0.00873456 0.0685397 264 1141 0 -0.000446764 0.000160557 0.000573648 1.69868e-08 2.70445e-06 
0.0464056 0.0387401 0.0561616 0.0387984 -0.0177881 0.11076 264 674 0 0.00223656 6.70667e-05 -0.000933189 1.70933e-08 2.7214e-06 
0.0435248 0.00873456 0.0685397 0.0656745 0.00645292 0.203158 1141 1570 0 -0.000113843 -6.36852e-05 6.86671e-05 1.24716e-08 1.98541e-06 
0.0656745 0.00645292 0.203158 0.00896042 -0.0142895 0.150833 1570 807 0 2.022e-05 -0.000346453 -0.000541879 4.4893e-09 7.14559e-07 
0.0795933 0.195148 0.155013 0.241765 0.187673 -0.11764 2019 1566 0 -0.00747597 0.0135424 -0.0101968 1.382e-07 2.2056e-05 
0.0795933 0.195148 0.155013 0.220827 0.255514 0.120138 2019 2192 0 0.0013178 -0.000200126 2.8169e-05 5.48258e-08 8.73534e-06 
0.0795933 0.195148 0.155013 0.085985 -0.00661737 0.297348 2019 1105 0 0.00604139 -0.0178682 -0.00758816 1.21993e-07 1.94632e-05 
0.00735296 -0.0522651 0.354755 -0.121634 0.199225 -0.0346535 1874 811 0 -0.0176582 0.0191654 -0.00921313 1.11902e-07 1.78496e-05 
-0.00416943 0.021714 0.0661579 -0.037397 -0.0288463 0.0895311 1724 460 0 0.00447406 -0.00272925 0.000826174 6.20233e-08 9.88352e-06 
-0.00416943 0.021714 0.0661579 -0.0946105 0.0516854 0.0675361 1724 1204 0 -0.00349235 0.00602218 -0.00830217 7.83144e-08 1.24836e-05 
0.0512633 0.0582958 0.211365 -0.00392681 -0.00298626 0.106369 1296 1264 0 0.00116759 -0.00236136 0.000281937 3.61484e-08 5.75734e-06 
0.0512633 0.0582958 0.211365 -0.0152218 -0.0512717 0.201453 1296 1933 0 -0.00376989 -0.00961227 -0.00103279 5.143e-08 8.19374e-06 
0.0417401 0.0351199 0.0875598 0.0248407 0.0618888 0.0223957 1064 2085 0 0.0017202 0.00786012 -0.00774962 8.12168e-08 1.2947e-05 
0.0387984 -0.0177881 0.11076 0.0122926 -0.0108716 0.0805994 674 1864 0 0.0025217 -0.000684214 -0.00216988 4.56276e-08 7.26846e-06 
0.254773 -0.0855088 -0.0762752 0.241765 0.187673 -0.11764 585 1566 0 0.00315021 -0.0169367 0.00381074 6.87916e-08 1.09635e-05 
0.241765 0.187673 -0.11764 0.220827 0.255514 0.120138 1566 2192 0 -0.00730772 -0.018283 -0.00718603 1.49114e-07 2.3803e-05 
0.241765 0.187673 -0.11764 0.239602 0.125485 -0.00553228 1566 373 0 -0.0200437 0.0183474 0.00246496 1.65742e-07 2.64662e-05 
0.239602 0.125485 -0.00553228 -0.278932 -0.165985 0.0391755 373 178 0 -0.038695 0.0290988 -0.000600926 2.40723e-07 3.84975e-05 
-0.0946105 0.0516854 0.0675361 -0.112954 0.14601 0.0897024 1204 136 0 -0.00275676 0.00515675 -0.014621 1.21384e-07 1.93657e-05 
0.220827 0.255514 0.120138 -0.00403649 0.196664 0.201481 2192 984 0 0.000116868 -0.0211729 -0.00764846 1.63357e-07 2.60842e-05 
0.220827 0.255514 0.120138 0.0913724 0.012023 0.142019 2192 1061 0 -0.01008 -0.00195535 -0.0128241 1.29327e-07 2.06363e-05 
0.085985 -0.00661737 0.297348 -0.00403649 0.196664 0.201481 1105 984 0 -0.0155009 -0.00105391 -0.00164257 1.04269e-07 1.66296e-05 
0.085985 -0.00661737 0.297348 0.0326958 -0.0902747 0.243783 1105 2006 0 0.00239605 -0.00168402 -0.00156771 8.44351e-09 1.34405e-06 
-0.100991 0.0457277 0.15707 -0.0466982 0.019491 0.185761 1152 813 0 -0.000882669 0.000942355 0.000496373 4.41795e-08 7.03758e-06 
-0.100991 0.0457277 0.15707 -0.108589 0.0745125 0.149093 1152 1160 0 0.0013837 -0.000303117 -0.00186606 3.34146e-08 5.32163e-06 
0.0122926 -0.0108716 0.0805994 -0.00392552 0.0170442 0.0794732 1864 2202 0 0.0036442 -0.00163663 -0.00190037 5.56804e-08 8.87164e-06 
0.0913724 0.012023 0.142019 0.0408695 -0.0160038 0.122489 1061 1964 0 -0.0112098 -0.0110712 0.00179563 1.07761e-07 1.71875e-05 
0.166352 0.451237 0.01345 0.0276023 0.0494375 0.0464905 1832 651 0 0.00124643 -0.000301496 0.00052741 1.68163e-08 2.6773e-06 
-0.00403649 0.196664 0.201481 0.0537117 0.103194 0.144741 984 1539 0 0.0125996 0.00726279 -0.00589537 9.81122e-08 1.56456e-05 
-0.00403649 0.196664 0.201481 -0.0163003 0.0488864 0.100812 984 295 0 -0.00435033 -0.019369 -0.0128843 1.00891e-07 1.60897e-05 
0.0408695 -0.0160038 0.122489 -0.0466982 0.019491 0.185761 1964 813 0 0.00102844 -0.000989008 0.00626028 4.52263e-08 7.20448e-06 
0.0390416 -0.0205092 0.0820492 0.0123295 -0.0201524 0.0413006 727 170 0 0.00073652 0.000226694 -0.00105183 2.3015e-08 3.66463e-06 
-0.108589 0.0745125 0.149093 -0.112335 0.0224124 0.16753 1160 489 0 0.00274396 -0.00118372 -0.00185041 6.92903e-09 1.10294e-06 
-0.00392552 0.0170442 0.0794732 0.0123295 -0.0201524 0.0413006 2202 170 0 3.52714e-05 0.00928325 -0.00309321 9.38178e-08 1.49595e-05 
0.103329 -0.099192 0.0428387 -0.395489 -0.0326473 -0.256166 2024 1419 0 -0.00310147 -0.00128059 0.000624384 3.66494e-08 5.8372e-06 
-0.0674542 0.0143585 0.117576 0.0131778 -0.0676999 0.131823 1711 7 0 0.0013899 -0.00154631 -0.00414609 3.04117e-08 4.8431e-06 
0.260907 0.237606 -0.0401172 0.0223309 0.0289496 -0.148298 1099 2164 0 0.00390456 -0.00406153 0.00273671 6.12409e-08 9.75869e-06 
0.260907 0.237606 -0.0401172 -0.112954 0.14601 0.0897024 1099 136 0 -0.0154512 -0.00225454 0.00458732 1.73709e-08 2.76562e-06 
-0.112954 0.14601 0.0897024 0.0537117 0.103194 0.144741 136 1539 0 -0.00344003 -0.00216666 0.00128747 7.12909e-08 1.13624e-05 
-0.112954 0.14601 0.0897024 -0.240642 0.185435 0.146037 136 1076 0 0.000123706 0.00262037 -0.0118538 1.21984e-07 1.94616e-05 
-0.0851218 0.172303 0.0637784 -0.212754 0.174033 0.137726 483 72 0 -0.000452082 6.56142e-05 -0.000246396 4.59805e-09 7.31869e-07 
0.0163789 -0.0385975 0.0725275 0.0493786 -0.0512928 0.076931 2204 226 0 -0.00419926 -0.00466438 -0.00282798 5.93228e-08 9.45268e-06 
0.0537117 0.103194 0.144741 -0.027925 0.0580394 0.138063 1539 1960 0 -0.00193673 -0.00537036 -0.00400771 4.23995e-08 6.75379e-06 
0.0537117 0.103194 0.144741 0.0227004 0.0351715 0.127137 1539 2290 0 0.000892085 -0.00160328 -0.000670181 1.26426e-08 2.01263e-06 
-0.0163003 0.0488864 0.100812 -0.027925 0.0580394 0.138063 295 1960 0 0.00757271 -0.00248513 -0.0091144 1.1278e-07 1.79899e-05 
0.0123295 -0.0201524 0.0413006 0.0493786 -0.0512928 0.076931 170 226 0 0.00013126 0.00148646 -0.00224698 5.489e-08 8.74558e-06 
-0.101818 0.0424009 0.226512 -0.027925 0.0580394 0.138063 1046 1960 0 -0.0084744 0.0103912 0.000268927 1.13707e-07 1.81382e-05 
-0.101818 0.0424009 0.226512 -0.0966213 0.00861847 0.0531143 1046 572 0 0.0110528 -0.00830181 -0.00398132 8.34074e-08 1.32968e-05 
-0.101818 0.0424009 0.226512 0.0110591 0.0609655 0.199586 1046 1895 0 0.000992783 -0.00409761 -0.000135955 5.81779e-08 9.27004e-06 
-0.0147618 -0.00197798 0.0530156 -0.0319391 -0.00718078 0.0271831 1877 818 0 -0.0034134 0.00200323 0.00202295 5.03474e-08 8.02108e-06 
-0.0147618 -0.00197798 0.0530156 -0.0414735 0.0550931 0.123943 1877 1009 0 0.00224134 0.00430637 -0.00122296 5.86076e-08 9.33858e-06 
0.00933805 -0.161503 0.00106079 -0.0115008 -0.149426 0.171913 1230 1609 0 0.0010724 -0.000530096 0.000802043 1.39728e-08 2.22445e-06 
0.0131778 -0.0676999 0.131823 -0.0414358 0.0834592 0.0977948 7 2134 0 -0.00174524 -0.0064785 -0.0114008 1.20946e-07 1.92957e-05 
-0.240642 0.185435 0.146037 0.00408637 0.0493541 0.296272 1076 514 0 0.0065967 -0.00502209 -0.0117828 1.2222e-07 1.94994e-05 
-0.0872998 0.121158 0.182599 -0.0414358 0.0834592 0.0977948 1366 2134 0 0.000366345 0.00397216 -0.000901875 4.77076e-08 7.60012e-06 
-0.0872998 0.121158 0.182599 0.0250798 0.0655176 0.195511 1366 2315 0 -0.000842251 -0.00163354 -0.000410905 5.20384e-08 8.29077e-06 
-0.0872998 0.121158 0.182599 -0.0534524 -0.052886 0.159591 1366 175 0 -0.000433795 -0.00296752 -0.00444709 4.11344e-08 6.55211e-06 
-0.0631787 0.0042172 0.140958 -0.027925 0.0580394 0.138063 909 1960 0 0.00161054 3.19093e-05 0.000238847 2.21324e-08 3.52404e-06 
0.0493786 -0.0512928 0.076931 0.0598985 0.467655 0.299679 226 685 0 8.76038e-05 3.25038e-05 6.63949e-05 2.1046e-08 3.35098e-06 
0.0493786 -0.0512928 0.076931 0.0466358 -0.0519813 0.135981 226 2113 0 -0.00445398 -0.0115156 -0.00491142 1.17712e-07 1.87786e-05 
0.0227004 0.0351715 0.127137 0.0598985 0.467655 0.299679 2290 685 0 0.00280573 0.0238917 0.00246555 3.82076e-08 6.08556e-06 
0.0227004 0.0351715 0.127137 -0.091276 0.0455204 0.1529 2290 15 0 -0.00458756 -0.00150555 0.00118458 4.9779e-09 7.92336e-07 
-0.027925 0.0580394 0.138063 -0.0414735 0.0550931 0.123943 1960 1009 0 -0.00286155 -0.00439802 0.00280675 5.40049e-08 8.6044e-06 
-0.027925 0.0580394 0.138063 0.0250798 0.0655176 0.195511 1960 2315 0 0.00233204 0.00979373 -0.0144032 1.43097e-07 2.28398e-05 
-0.027925 0.0580394 0.138063 -0.00606861 0.0616422 0.157182 1960 1894 0 0.000509642 0.000604269 -0.000700254 2.17905e-08 3.46957e-06 
-0.0966213 0.00861847 0.0531143 0.0466358 -0.0519813 0.135981 572 2113 0 0.0147282 0.00198254 -0.00679098 1.01568e-07 1.61978e-05 
0.0121931 0.0125845 0.161058 -0.0161916 0.108371 0.109809 193 42 0 0.000907476 -0.000288681 -0.000195579 2.92463e-08 4.65741e-06 
-0.0414358 0.0834592 0.0977948 -0.0161916 0.108371 0.109809 2134 42 0 -0.00434612 -0.000724856 -0.00154809 5.82658e-08 9.28407e-06 
-0.0414358 0.0834592 0.0977948 0.0511884 -0.0118952 0.129261 2134 1024 0 0.00465407 -0.000805987 -0.0065604 8.08395e-08 1.28868e-05 
0.0169535 0.0424874 0.0786764 0.00408637 0.0493541 0.296272 315 514 0 -0.0184816 0.00540387 -0.00263609 1.55062e-07 2.47554e-05 
0.0169535 0.0424874 0.0786764 -0.0254994 0.042242 0.1264 315 869 0 0.00136466 -0.00448067 -0.00298026 7.05379e-08 1.12422e-05 
0.00408637 0.0493541 0.296272 0.0455187 0.0218259 0.375654 514 1288 0 -0.00069606 -0.00330814 -0.0197117 1.65335e-07 2.6401e-05 
0.0598985 0.467655 0.299679 0.0299921 0.0551858 0.314233 685 2299 0 0.0014151 0.00347246 -0.0110044 8.84497e-08 1.41021e-05 
0.0250798 0.0655176 0.195511 -0.0392594 0.0938717 0.254498 2315 1432 0 0.000948022 0.00327173 -0.00687512 7.53438e-08 1.20094e-05 
0.0250798 0.0655176 0.195511 0.0120225 0.131201 0.204182 2315 760 0 -0.00325546 0.0016732 -0.0111795 1.04283e-07 1.66318e-05 
-0.00606861 0.0616422 0.157182 -0.00615784 0.0272221 0.173875 1894 2257 0 -0.00277398 -0.00185361 -0.000703893 3.33304e-08 5.30822e-06 
-0.00606861 0.0616422 0.157182 -0.0346214 0.04706 0.182665 1894 787 0 9.95032e-05 -4.79506e-05 -6.08576e-05 1.87782e-08 2.98976e-06 
0.0466358 -0.0519813 0.135981 0.0231398 -0.0423037 0.230517 2113 86 0 0.0041238 -0.0234771 -0.00969688 1.85529e-07 2.96376e-05 
-0.00615784 0.0272221 0.173875 0.0130361 -0.00241653 0.191372 2257 952 0 -0.000285556 -0.000418782 -0.000142686 4.30357e-09 6.84994e-07 
0.00308726 -0.0266367 0.167502 0.0810988 0.0363899 0.225156 1715 1794 0 -0.000171538 8.75153e-05 8.68045e-06 9.27284e-09 1.47609e-06 
-0.0344394 0.114329 0.317259 0.0364319 -0.134845 0.0589682 815 2287 0 -0.00155918 0.00190023 -0.00449401 5.6945e-08 9.07337e-06 
-0.0161916 0.108371 0.109809 -0.0586322 -0.111626 0.134366 42 189 0 6.57702e-05 -8.17148e-05 0.000453629 8.56647e-09 1.36363e-06 
-0.0392594 0.0938717 0.254498 0.0451318 0.081611 0.266981 1432 609 0 0.000600051 0.00155955 -0.00490528 5.40155e-08 8.6061e-06 
-0.0254994 0.042242 0.1264 0.0195656 -0.0175653 0.132641 869 713 0 -0.00210011 -0.00583825 -0.000877595 4.73524e-08 7.54348e-06 
0.0231398 -0.0423037 0.230517 0.0810988 0.0363899 0.225156 86 1794 0 -0.000222187 0.00185825 -0.00432516 4.94881e-08 7.88405e-06 
0.0282199 -0.258354 0.0137398 0.0364319 -0.134845 0.0589682 436 2287 0 0.00319474 -0.00266591 0.000322433 7.24738e-08 1.15512e-05 
0.0364319 -0.134845 0.0589682 0.0402795 -0.114087 0.0445421 2287 274 0 -0.000937356 0.00317599 -0.00221083 1.58207e-08 2.51873e-06 
0.0511884 -0.0118952 0.129261 0.0672977 0.0201154 0.156643 1024 846 0 0.00425203 0.00022689 -0.0035135 6.07234e-08 9.67613e-06 
0.0511884 -0.0118952 0.129261 -0.0586322 -0.111626 0.134366 1024 189 0 -0.010824 0.00103344 0.00238741 6.62057e-08 1.05509e-05 
-0.000830551 0.0662203 0.202516 -0.0768161 -0.0284746 0.206867 1324 1271 0 0.000156484 0.00243226 -0.00665431 8.96908e-08 1.43003e-05 