ITEM: TIMESTEP
18800000
ITEM: NUMBER OF ENTRIES
1272
ITEM: BOX BOUNDS ff ff ff
-0.01 0.45
-0.15 0.15
-0.08 0.1
ITEM: ENTRIES c_ppc[1] c_ppc[2] c_ppc[3] c_ppc[4] c_ppc[5] c_ppc[6] c_ppc[7] c_ppc[8] c_ppc[9] c_ppc[10] c_ppc[11] c_ppc[12] c_ppc[13] c_ppc[14] 
-1.87258e-12 -2.15979e-12 -2.03326e-13 1.72256e-12 -3.48249e-13 -1.91889e-13 665 23 0 -0.317736 -1.34629 -0.230398 2.36402e-06 0.00039583 
-1.8895 5.18748 -5.75794 -0.752984 0.506065 -3.64537 2347 1716 0 -0.00351156 0.225269 -0.0661271 1.52855e-06 0.000251161 
-3.24892 1.73974 -17.5216 4.53371 -1.04045 -7.00864 1020 59 0 -0.325619 -0.873218 -0.827307 3.30644e-06 0.000566326 
-0.752984 0.506065 -3.64537 0.860177 -12.4019 -8.06558 1716 2020 0 0.022674 -0.135638 0.143989 5.4953e-07 8.84381e-05 
-0.0347498 -0.149687 0.00959054 0.0239168 -0.0417586 -0.0921846 1683 1481 0 -0.00327901 0.000188538 -0.00328894 5.86683e-08 9.34828e-06 
0.373833 0.0168765 -0.0139856 -0.0292877 0.264054 0.154509 104 2158 0 0.000402569 0.00218296 0.000693625 2.30912e-10 3.6751e-08 
0.0239168 -0.0417586 -0.0921846 -0.0725321 -0.0546576 0.0803721 1481 816 0 -0.00319335 -0.00890404 0.0048577 6.43174e-08 1.02496e-05 
0.0239168 -0.0417586 -0.0921846 0.00432866 -0.13868 -0.0417997 1481 1513 0 -0.00100148 -0.00270064 -0.00175704 3.87404e-08 6.17049e-06 
-0.0555426 0.438865 0.222389 -0.107935 0.277014 0.00894515 1541 1667 0 0.00558141 0.0315776 -0.0075811 2.29992e-07 3.67733e-05 
-0.0555426 0.438865 0.222389 -0.0165146 0.196442 0.0154132 1541 927 0 -0.0138698 -0.00207174 -0.00525051 1.18164e-07 1.88509e-05 
0.773218 0.463228 0.122508 0.473172 0.0222356 -0.0449404 2271 1912 0 -0.00314086 -0.0133779 -0.0371852 1.87555e-07 2.99625e-05 
0.0836997 0.0724116 -0.192527 -0.107935 0.277014 0.00894515 654 1667 0 0.00147554 -0.018739 0.00331449 1.92908e-07 3.0821e-05 
0.0836997 0.0724116 -0.192527 0.0772353 0.820767 0.275798 654 2101 0 0.00108763 0.00767897 -0.00460478 7.47698e-08 1.19177e-05 
0.000696676 -0.0814642 -0.118001 0.0214418 -0.0872112 -0.0860351 2133 1535 0 -0.0092268 -0.00968483 -0.00837619 1.32906e-07 2.12089e-05 
0.431134 0.414927 0.164681 0.398286 0.55565 0.142537 1637 517 0 -0.0549251 -0.117199 -0.0487361 5.48319e-07 8.8241e-05 
0.0772353 0.820767 0.275798 0.0506185 0.121621 -0.0378648 2101 998 0 0.000972953 -0.0117236 -0.00748215 4.56848e-09 7.27163e-07 
0.311035 0.080685 -0.0397675 0.0281224 0.000248148 -0.0913258 1098 1284 0 -0.00172306 -0.00474748 -0.00118111 5.04196e-08 8.0326e-06 
0.0214418 -0.0872112 -0.0860351 0.0646779 -0.0367948 -0.0566409 1535 1059 0 -0.00794967 -0.0091475 -0.011409 1.45916e-07 2.3291e-05 
0.0281224 0.000248148 -0.0913258 0.0244645 -0.0866051 0.013869 1284 369 0 -0.00281445 -0.00274284 -0.000852792 4.62449e-08 7.36689e-06 
-0.0138779 0.133153 0.109902 -0.0183552 -0.0356032 -0.0174052 1805 2126 0 -0.00786867 -0.00294296 0.000898682 7.09508e-08 1.13082e-05 
-0.0138779 0.133153 0.109902 -0.0196421 -0.0562592 -0.150849 1805 380 0 0.00170679 0.00422484 -0.00723811 2.84947e-08 4.53765e-06 
-0.0183552 -0.0356032 -0.0174052 0.00432866 -0.13868 -0.0417997 2126 1513 0 -0.00358128 0.000541742 0.000986717 4.55161e-08 7.25069e-06 
0.0506185 0.121621 -0.0378648 0.152714 -0.208365 0.000116971 998 1773 0 -0.00871107 -0.00503611 0.00248029 1.24355e-07 1.98409e-05 
0.0506185 0.121621 -0.0378648 -0.0149376 -0.00220973 0.0418936 998 1002 0 -0.000191287 -0.033047 0.00321918 1.73442e-07 2.77001e-05 
-0.0149376 -0.00220973 0.0418936 -0.0196421 -0.0562592 -0.150849 1002 380 0 0.00395338 -0.0179218 0.00210167 1.19645e-07 1.90876e-05 
0.0646779 -0.0367948 -0.0566409 0.0835912 -0.109875 -0.0183645 1059 1053 0 -0.0149703 -0.0089007 0.00241659 1.30722e-07 2.08594e-05 
0.0646779 -0.0367948 -0.0566409 0.0223119 -0.0936321 -0.00947525 1059 300 0 -0.000802182 -0.00220973 0.00612522 1.5368e-08 2.44665e-06 
0.122848 -0.21087 0.127738 0.400962 -0.17232 -0.0316292 1335 1465 0 0.00335963 -0.00435694 -0.0515044 2.32797e-07 3.7224e-05 
0.0560665 -0.206733 -0.279632 0.0298302 -0.048918 -0.232735 1901 708 0 -0.00202297 -0.00151297 -0.021924 1.70274e-07 2.71924e-05 
-0.559849 -1.16309 -0.332739 0.198353 -1.33195 -1.17845 2064 2144 0 -0.0586461 -0.0268307 -0.0955039 4.25068e-07 6.82337e-05 
0.0298302 -0.048918 -0.232735 0.101631 0.0234169 -0.132097 708 2093 0 0.00410849 5.11594e-05 -0.00575781 9.22974e-08 1.47167e-05 
-0.0469178 0.0970679 -0.362036 0.143994 0.0199154 -0.0617584 1987 781 0 -0.00634261 0.00386556 0.00197962 1.00882e-07 1.60882e-05 
0.198353 -1.33195 -1.17845 1.13567 1.88952 -3.18153 2144 143 0 -0.0320253 -0.0185065 -0.00487436 3.63641e-07 5.83001e-05 
0.529678 -0.126445 -0.128676 0.201741 -0.381257 -0.129639 792 1569 0 -0.0299637 0.00798717 -0.0250885 2.08244e-07 3.32815e-05 
-0.191933 0.0131143 -0.299611 0.152694 -0.324768 -0.402872 29 2318 0 0.00324051 0.0030963 -0.0080727 1.48608e-07 2.37221e-05 
0.101631 0.0234169 -0.132097 0.0693787 0.0470876 -0.062956 2093 983 0 0.0136725 -0.00348089 0.000555819 1.11371e-07 1.77647e-05 
0.101631 0.0234169 -0.132097 -0.0958744 0.0507603 -0.117829 2093 1090 0 -0.0131431 -0.00547767 0.00882672 8.59221e-08 1.36984e-05 
0.101631 0.0234169 -0.132097 -0.374804 -0.0687451 0.00957574 2093 339 0 0.000106053 0.004176 -0.00339071 6.52106e-08 1.03921e-05 
-0.0958744 0.0507603 -0.117829 0.0485121 0.10954 0.0856142 1090 1049 0 -0.000375763 -0.000152129 0.000704106 1.14164e-08 1.8174e-06 
0.0962216 0.0519682 0.0348749 0.118778 -0.00433498 0.0568651 1943 1582 0 0.00119198 -0.000604969 -0.00056205 1.44504e-08 2.30052e-06 
0.152694 -0.324768 -0.402872 -0.00399627 0.214942 -1.01574 2318 647 0 -0.0254532 0.0310295 -0.0209746 1.2942e-08 2.06031e-06 
0.0235784 -0.00567404 -0.386168 -0.374804 -0.0687451 0.00957574 542 339 0 -0.000123462 0.000345637 0.000233379 2.41893e-08 3.8517e-06 
0.0866197 0.0387683 0.042834 0.118778 -0.00433498 0.0568651 804 1582 0 -0.000534838 0.000348172 -5.92787e-05 3.18836e-08 5.07766e-06 
0.00618297 -0.231619 -0.604245 0.115568 0.194672 -1.13232 2305 925 0 0.062796 0.0837325 -0.0611623 3.53731e-07 5.66999e-05 
0.304224 -0.109735 -0.710273 0.153322 0.317655 -0.268182 696 670 0 0.10975 0.0330432 -0.0941387 6.05945e-07 9.76306e-05 
-0.374804 -0.0687451 0.00957574 -0.44111 -0.183114 -0.01125 339 190 0 -0.00975737 -0.000157873 -0.00649784 9.04549e-08 1.44223e-05 
-0.374804 -0.0687451 0.00957574 -0.232316 0.00632872 0.136401 339 2090 0 0.00525458 -0.00418347 -0.000296695 1.77962e-08 2.83336e-06 
-0.44111 -0.183114 -0.01125 -0.0400597 -0.363529 -0.26649 190 1700 0 0.00133143 0.00567772 -0.00075897 1.95217e-08 3.10818e-06 
-0.480209 0.278591 -0.127034 -0.668572 0.191809 0.40474 1568 1968 0 -0.0154073 0.00863953 -0.00567575 2.06769e-07 3.30448e-05 
0.00567297 -0.0846773 0.0821567 -0.00247828 -0.0622212 0.0814104 734 235 0 3.30092e-06 5.22332e-05 -9.5052e-05 3.22781e-09 5.13755e-07 
-0.00494532 -0.024725 0.0292501 0.0121545 -0.120689 -0.0510021 852 987 0 -0.00220473 0.00588966 -0.000815571 3.34852e-08 5.33288e-06 
0.0279678 -0.0234797 0.00906539 0.017503 -0.0443864 0.0577814 1885 930 0 0.000119832 -0.000174698 4.97632e-05 7.96706e-09 1.2682e-06 
0.0279678 -0.0234797 0.00906539 0.0195778 0.00375903 0.0300251 1885 2080 0 7.30905e-05 8.89893e-05 4.45959e-05 1.08714e-09 1.73028e-07 
0.067632 -0.0470084 0.00061206 0.0624972 -0.142232 0.0324006 631 813 0 0.000188596 -1.27321e-05 0.000217625 3.62496e-09 5.76971e-07 
0.0333738 -0.0198795 0.0727242 0.0041621 -0.0380848 0.171549 1756 1592 0 -0.000645808 -0.00516215 -0.00560052 9.88318e-08 1.57606e-05 
0.414159 -0.617517 -1.24436 1.4497 -0.0489704 -1.90322 1070 592 0 -0.0311013 -0.042521 -0.133356 4.68513e-07 7.52744e-05 
-0.12145 0.0818975 -0.0292576 -0.0222454 0.0222049 -0.0515729 1058 597 0 -0.00454221 -0.000351865 -0.00716276 2.88245e-08 4.59019e-06 
-0.12145 0.0818975 -0.0292576 0.0121545 -0.120689 -0.0510021 1058 987 0 0.0118563 -0.00859183 0.00515052 5.48634e-08 8.74133e-06 
0.0121545 -0.120689 -0.0510021 -0.0844096 -0.196478 -0.131893 987 698 0 0.000122902 -0.000169106 0.00011731 8.6732e-10 1.38041e-07 
0.0624972 -0.142232 0.0324006 0.0403003 -0.144636 0.0131054 813 1152 0 -1.30396e-05 -0.000425491 -0.000862455 1.53048e-08 2.43657e-06 
2.09974 0.450621 -3.53466 -1.01654 5.06153 -8.551 2075 1275 0 0.331506 0.107332 -0.478595 1.29289e-06 0.000211354 
0.446724 0.670377 -1.50866 0.463184 -0.04391 -0.192337 589 938 0 0.00419808 0.00665651 -0.000365824 1.44639e-07 2.30867e-05 
0.00071043 0.0334222 0.0163492 0.0322407 0.00590033 0.108452 415 793 0 -0.0014828 -0.00559257 0.00060018 5.76026e-08 9.17827e-06 
-0.740599 -0.271044 -0.570335 0.14832 0.571519 -0.64557 2339 1791 0 0.0625041 -0.0397889 0.0159726 3.90436e-07 6.26302e-05 
-0.740599 -0.271044 -0.570335 0.247835 -0.444115 -0.317352 2339 2199 0 -0.00520762 0.0111916 -0.00468991 2.74527e-07 4.39336e-05 
-0.144993 0.0374268 -0.0556009 0.0663026 0.552321 0.165257 1964 1303 0 -0.00491901 0.00615799 -0.00526655 1.34073e-07 2.13956e-05 
0.0403003 -0.144636 0.0131054 0.0954009 -0.01786 0.00889754 1152 1933 0 0.00153705 0.00102818 -0.00124413 2.08873e-08 3.3257e-06 
-0.00216128 0.00419048 0.0812877 0.05548 0.0151067 0.0368137 1264 727 0 -0.00234938 0.00472818 -0.00262598 4.72827e-08 7.53237e-06 
-0.00216128 0.00419048 0.0812877 -0.00252615 -0.0232108 0.0839402 1264 2085 0 0.0013198 -0.000352647 -0.00039456 2.49792e-08 3.97754e-06 
0.085982 -0.247216 0.160302 0.11238 -0.0573907 0.0577013 807 786 0 -0.00388032 -0.000284041 -0.00249922 5.95598e-08 9.49049e-06 
0.0209838 -0.0335683 -0.018057 0.0128471 -0.0585886 0.0227724 460 651 0 3.27841e-05 -0.00104858 -0.000624762 2.61144e-08 4.1584e-06 
0.0954009 -0.01786 0.00889754 0.0487046 0.0735549 -0.0344827 1933 2006 0 0.00390585 0.00286814 -0.00444549 4.46915e-08 7.11921e-06 
0.02417 -0.0514759 -0.380619 1.37203 1.02485 -0.301897 811 225 0 0.0565918 0.0482953 0.00107378 4.63992e-08 7.39149e-06 
0.0382706 0.0662162 -0.272258 -0.0354896 0.124405 -0.00880921 430 1832 0 -0.00188575 -0.00115765 0.00120449 5.33228e-08 8.49561e-06 
-0.0354896 0.124405 -0.00880921 0.0487046 0.0735549 -0.0344827 1832 2006 0 -0.00340498 -0.0100219 0.00330969 1.01273e-07 1.61507e-05 
0.0487046 0.0735549 -0.0344827 0.05548 0.0151067 0.0368137 2006 727 0 0.00380233 -0.0122079 -0.00216863 9.78406e-08 1.56022e-05 
0.0128471 -0.0585886 0.0227724 0.0260783 -0.0219545 -0.0401837 651 170 0 -6.73768e-06 1.75364e-05 -0.000933716 1.04208e-08 1.65887e-06 
0.05548 0.0151067 0.0368137 -0.0480682 -0.0781243 0.0481169 727 572 0 0.00135047 -0.00207298 -0.00686024 7.73255e-08 1.23257e-05 
0.0338408 -0.0353985 0.0231907 0.0322431 -0.0319825 -0.00215258 57 489 0 -0.000437479 -7.16636e-05 -0.000346414 9.982e-09 1.589e-06 
0.0322431 -0.0319825 -0.00215258 -0.0126964 0.00259622 0.027267 489 1877 0 -0.000670708 -0.000446031 -0.00094256 2.11599e-08 3.36913e-06 
-0.00253076 -0.0351498 0.0129166 -0.0166707 -0.0465192 -0.0219213 2164 562 0 -0.001441 0.00316105 -0.00362461 5.28925e-08 8.42697e-06 
0.0570629 -0.0527311 0.076966 -0.000772532 -0.0872409 0.017014 2204 226 0 0.000321529 -0.0063109 -0.00430895 6.01524e-08 9.58503e-06 
-0.0334024 -0.0537788 -0.0418959 -0.0585833 -0.0559501 0.121636 909 1960 0 -2.43407e-05 1.21651e-05 1.31168e-05 1.28897e-08 2.05199e-06 
0.0158565 -0.0940484 0.0194398 -0.0178647 -0.0596987 0.0665717 1046 1009 0 -0.000837018 -0.000289466 -0.00016169 2.33871e-08 3.7239e-06 
-0.0585833 -0.0559501 0.121636 -0.0178647 -0.0596987 0.0665717 1960 1009 0 0.000452135 -0.00113214 -0.000430798 1.94583e-08 3.09809e-06 
0.0260783 -0.0219545 -0.0401837 0.0310487 -0.0805698 -0.0322042 170 2113 0 -0.000391969 0.000364973 -0.00121155 3.02963e-08 4.82472e-06 
-0.0178647 -0.0596987 0.0665717 0.00402515 0.000257757 0.0225174 1009 2257 0 -0.00131795 -0.00124189 -0.00157087 2.85848e-08 4.552e-06 
-0.0126964 0.00259622 0.027267 0.00402515 0.000257757 0.0225174 1877 2257 0 1.37722e-05 0.00203975 -0.00136861 3.56491e-08 5.67776e-06 
0.848479 1.85049 -1.07396 1.37203 1.02485 -0.301897 1533 225 0 -0.20541 -0.23455 -0.0016116 8.43329e-07 0.000136551 
1.37203 1.02485 -0.301897 0.0743226 0.085614 -0.116 225 483 0 -0.0223498 -0.135577 -0.025171 2.69231e-07 4.30815e-05 
1.37203 1.02485 -0.301897 0.0049695 0.0466467 -0.0692284 225 2023 0 -0.110314 -0.0103259 -0.0202237 2.70405e-07 4.32704e-05 
0.0203498 -0.026486 0.0130723 0.0754005 -0.0665076 0.0380633 1366 2290 0 0.000607069 -0.00132657 -0.000265703 7.61492e-09 1.21214e-06 
-0.000772532 -0.0872409 0.017014 0.0310487 -0.0805698 -0.0322042 226 2113 0 -0.00117948 -0.000392503 -0.00560006 3.8924e-08 6.19976e-06 
0.00402515 0.000257757 0.0225174 0.0603056 -0.043316 0.076902 2257 1894 0 0.00182216 -0.000721551 0.00268699 6.54572e-09 1.04192e-06 
0.00402515 0.000257757 0.0225174 0.0219171 -0.000363144 0.151506 2257 2021 0 0.000358512 -0.000505004 -0.000356333 1.38538e-08 2.20551e-06 
0.00731269 0.0642617 0.00197815 -0.044368 0.020354 0.0676468 1715 1511 0 0.000214776 -0.00124284 0.000863343 1.83727e-08 2.92517e-06 
0.0174181 -0.0606842 0.0970772 -0.00126118 -0.0785211 0.0917719 2315 1136 0 -0.000401008 4.96857e-05 4.01665e-05 7.80809e-09 1.24289e-06 
0.0821126 -0.215478 0.209641 -0.0932962 -0.0215519 0.234624 985 981 0 -0.000832288 -0.000139626 0.00121607 2.55463e-08 4.06789e-06 
0.0310487 -0.0805698 -0.0322042 0.0111746 -0.0293499 0.00579904 2113 713 0 0.00174409 0.000407628 -0.00402257 5.54463e-08 8.83431e-06 
-0.044368 0.020354 0.0676468 -0.0198457 -0.0591292 0.0587711 1511 15 0 -0.000508762 -7.72261e-05 0.000492078 3.95705e-08 6.30281e-06 
-0.044368 0.020354 0.0676468 -0.0360072 -0.0239533 0.145308 1511 1794 0 0.000638207 -0.00092284 -0.000485078 2.21797e-08 3.53156e-06 
0.0219171 -0.000363144 0.151506 -0.0360238 -0.108857 0.0821143 2021 747 0 -0.000998341 -0.00106717 -0.00131598 6.22074e-09 9.90185e-07 
0.057912 0.0495844 -0.0558121 0.0964715 2.06121 -0.248407 627 208 0 0.0012379 0.0777088 -0.0323876 1.19253e-07 1.90249e-05 
0.143167 0.0587264 0.0470181 0.0114536 -0.0908663 0.0199907 1432 175 0 -0.000127029 -0.00108835 -3.73544e-05 1.59451e-08 2.53855e-06 
0.0145318 -0.156275 0.0437934 0.0114536 -0.0908663 0.0199907 514 175 0 -8.70277e-05 -9.56007e-05 -3.43763e-05 1.23893e-08 1.9723e-06 
0.0114536 -0.0908663 0.0199907 -0.0198457 -0.0591292 0.0587711 175 15 0 0.00107823 -0.00218161 0.00096314 4.90757e-08 7.81828e-06 
0.0114536 -0.0908663 0.0199907 -0.0395856 -0.0406118 0.0750121 175 609 0 -0.000558199 0.000536562 -0.00101764 3.14289e-08 5.0052e-06 
-0.00408872 0.0412544 0.0383128 -0.0246976 0.0620143 0.0987674 1324 228 0 -0.00171488 -0.00369139 0.00102255 5.5771e-08 8.8861e-06 
-0.00980685 -0.0946476 0.0889863 -0.0631117 -0.0169119 0.0432444 760 1398 0 -0.000275011 -0.00143832 -0.00181181 3.62955e-08 5.78078e-06 
-0.0360238 -0.108857 0.0821143 -0.0057346 -0.0694445 0.0635093 747 294 0 -0.000309027 -6.19664e-05 -0.000896361 2.28104e-08 3.63203e-06 
-0.0360072 -0.0239533 0.145308 -0.00751014 0.00938733 0.108436 1794 1389 0 0.000255675 -0.000149326 -0.00110084 9.62802e-09 1.53264e-06 
0.0076224 -0.0906136 0.125851 -0.00196472 -0.0210028 0.0826717 952 886 0 -0.00139937 -0.00120345 -0.00248567 2.43679e-08 3.88015e-06 
0.0964715 2.06121 -0.248407 -0.68011 0.97104 0.370991 208 1230 0 -0.0174973 0.140823 -0.100045 8.09524e-07 0.000130984 
-0.100506 -0.035654 0.114111 -0.0498581 0.0728483 0.172938 840 304 0 -0.00417159 0.00030516 0.00184848 6.67206e-08 1.0633e-05 
-0.100506 -0.035654 0.114111 -0.0301407 0.0311464 0.0246353 840 42 0 0.00215293 -0.00026649 6.58694e-05 3.10999e-08 4.95277e-06 
-0.0429256 0.0115803 -0.0155224 0.0727562 0.0191194 0.00916452 2134 1634 0 -0.000107854 -3.60855e-06 0.000230151 5.80929e-09 9.24685e-07 
-0.042474 0.0445234 0.0381471 -0.033281 0.0145169 -0.0171577 1041 392 0 -0.00212708 -0.000521947 -0.00114042 3.28603e-08 5.2333e-06 
-0.042474 0.0445234 0.0381471 -0.0460621 0.0608808 0.0787483 1041 671 0 0.000567969 -0.000723502 -0.00133706 4.21157e-08 6.70855e-06 
0.0869784 -0.0858203 0.0182993 0.00600284 0.00568027 0.0502595 1602 1293 0 -1.27655e-05 -3.03456e-05 0.000179689 9.29412e-10 1.47923e-07 
9.87389e-06 -0.0276926 0.0208374 -0.00626316 -0.0352734 0.0040476 1288 932 0 0.00123797 -0.000453218 0.000489337 1.83386e-08 2.91974e-06 
0.0111746 -0.0293499 0.00579904 0.0208444 -0.00391762 0.0318995 713 2299 0 -0.00533852 -0.000281889 -0.00148136 6.59043e-08 1.05028e-05 
0.0208444 -0.00391762 0.0318995 0.00301716 -0.0127004 0.0570112 2299 2291 0 -0.00185741 0.00107379 0.000270594 3.04427e-08 4.84805e-06 
0.0208444 -0.00391762 0.0318995 -0.0403047 0.0168639 0.0702085 2299 2256 0 -0.00376619 -0.00163261 -0.00156723 4.46608e-08 7.11431e-06 
0.0208444 -0.00391762 0.0318995 0.0065421 -0.0388923 0.15711 2299 977 0 -0.000282526 0.000243557 4.39279e-05 4.92967e-09 7.84658e-07 
-0.0403047 0.0168639 0.0702085 -0.081366 0.0227757 0.0885863 2256 384 0 -0.00388905 -0.000906666 0.000354331 2.22385e-08 3.54094e-06 
-0.0226906 -0.0385264 0.0274151 -0.0673425 -0.0152085 0.020357 1426 2233 0 -0.000148717 -0.000228263 -0.000938215 2.33654e-08 3.72045e-06 
-0.0057346 -0.0694445 0.0635093 -0.00196472 -0.0210028 0.0826717 294 886 0 -0.00124639 0.00048446 5.71463e-05 2.61093e-08 4.15758e-06 
-0.0057346 -0.0694445 0.0635093 -0.0428012 -0.0164336 0.0510553 294 1531 0 0.0016022 -0.00150024 -0.00326625 4.64278e-08 7.39606e-06 
0.0244105 -0.0641228 -0.230234 0.190429 0.060447 -0.142301 906 1339 0 -0.0040675 -0.000185037 -0.00148825 9.50916e-08 1.5163e-05 
0.0277799 0.0159028 0.100907 0.00600284 0.00568027 0.0502595 2287 1293 0 -5.14975e-06 -0.00023849 1.22122e-05 9.22662e-09 1.46873e-06 
0.0277799 0.0159028 0.100907 0.0689943 0.00678002 0.0386396 2287 436 0 -0.00508658 -0.0034836 -0.00364508 2.64874e-08 4.21782e-06 
-0.0460621 0.0608808 0.0787483 -0.0986565 0.0203624 0.129449 671 1271 0 -0.000353759 -0.00165331 -0.00264423 5.01532e-08 7.99011e-06 
-0.00626316 -0.0352734 0.0040476 0.0308372 -0.119056 0.0433005 932 736 0 -0.00338905 0.000313409 0.0023826 1.67358e-08 2.66448e-06 
-0.0395856 -0.0406118 0.0750121 0.00301716 -0.0127004 0.0570112 609 2291 0 0.00361951 -0.00233003 0.00221038 4.61067e-08 7.34485e-06 
-0.0395856 -0.0406118 0.0750121 -0.0492971 0.00774688 0.0879705 609 2269 0 0.000881625 0.001278 -0.00284234 4.31252e-08 6.86949e-06 
-0.0539095 -0.0248736 0.0955722 -0.0986565 0.0203624 0.129449 924 1271 0 3.13132e-05 0.00217607 -0.00107367 3.332e-08 5.30656e-06 
-0.0631117 -0.0169119 0.0432444 -0.0673425 -0.0152085 0.020357 1398 2233 0 -0.000887702 -0.00286905 -0.00219385 4.23046e-08 6.73866e-06 
0.0065421 -0.0388923 0.15711 -0.00351577 -0.0249488 0.111562 977 1140 0 0.00172333 -0.0018548 -0.00159164 3.74302e-08 5.96164e-06 
-0.00751014 0.00938733 0.108436 -0.0182289 0.0243916 0.0869137 1389 881 0 -0.000148914 -0.000119593 -0.00355507 3.91746e-08 6.2397e-06 
0.164258 0.348808 0.0517509 0.184462 0.106831 -0.22153 2024 1711 0 -0.00107135 0.000714362 -0.000693081 2.86839e-08 4.56779e-06 
0.0727562 0.0191194 0.00916452 0.0844431 -0.0242119 0.0212748 1634 2089 0 0.000370839 3.40932e-05 -0.000924499 2.09326e-08 3.33292e-06 
0.0375997 -0.0697578 0.0346478 0.000788847 -0.0547176 0.0657704 1485 763 0 -0.000374806 -0.000243923 2.9009e-05 9.12543e-09 1.45262e-06 
-0.0492971 0.00774688 0.0879705 -0.111085 0.010044 0.091298 2269 204 0 -0.00208539 -0.0010632 0.000823025 1.588e-08 2.52818e-06 
-0.0492971 0.00774688 0.0879705 -0.0829987 0.0251819 0.0483634 2269 371 0 0.000247508 0.000117684 -0.00056452 1.55022e-08 2.46801e-06 
-0.0492971 0.00774688 0.0879705 0.0264966 -0.075091 0.0634712 2269 629 0 0.00280157 0.0024401 -0.00189297 4.80681e-08 7.65761e-06 
-0.0986565 0.0203624 0.129449 -0.111085 0.010044 0.091298 1271 204 0 0.000407098 0.000207778 -0.00206579 1.12675e-08 1.79368e-06 
-0.0986565 0.0203624 0.129449 -0.0219563 -0.0147144 0.0661003 1271 236 0 -0.000985605 0.00039929 -0.00300737 4.006e-08 6.38084e-06 
-0.0829987 0.0251819 0.0483634 -0.0853193 0.0352028 0.0125541 371 119 0 -0.000230699 0.000217022 2.349e-05 5.58614e-09 8.89161e-07 
-0.0829987 0.0251819 0.0483634 -0.0494673 9.01937e-05 0.0745911 371 1482 0 0.00123958 0.000554353 -0.00130701 3.00482e-08 4.78518e-06 
0.0480138 -0.0637107 0.019463 0.000839165 -0.03586 0.0122709 1083 1596 0 -0.000102895 -0.0001149 -0.00027808 1.48707e-08 2.36745e-06 
-0.081366 0.0227757 0.0885863 -0.0673425 -0.0152085 0.020357 384 2233 0 -0.00309416 0.000578669 0.000463117 4.80367e-08 7.65259e-06 
-0.081366 0.0227757 0.0885863 -0.0428012 -0.0164336 0.0510553 384 1531 0 -0.000306546 -0.00265343 0.00179387 3.36239e-08 5.355e-06 
-0.0673425 -0.0152085 0.020357 -0.0662806 -0.010648 0.0653172 2233 1298 0 -0.00499596 -0.0030807 -0.0020681 7.14559e-08 1.13888e-05 
0.0335283 0.163537 0.187152 0.184462 0.106831 -0.22153 2185 1711 0 -0.014177 -0.013314 -0.00448027 1.48361e-07 2.36825e-05 
0.0689943 0.00678002 0.0386396 0.0141771 -0.0544961 0.00138742 436 274 0 -8.14856e-05 -0.00313072 -0.0060784 3.92828e-08 6.25694e-06 
0.0689943 0.00678002 0.0386396 0.0844431 -0.0242119 0.0212748 436 2089 0 -0.00704587 -0.00540791 0.000536565 7.66815e-08 1.22229e-05 
0.0141771 -0.0544961 0.00138742 0.0264966 -0.075091 0.0634712 274 629 0 -0.00425989 -0.0021919 0.00111811 5.74152e-08 9.14838e-06 
0.0844431 -0.0242119 0.0212748 0.0145749 -0.116336 0.0792826 2089 1571 0 0.00205047 -0.00201216 -0.00125355 2.0961e-08 3.33744e-06 
0.0167172 -0.00222157 0.0413472 0.0179811 -0.0357165 0.083659 250 1138 0 0.000157956 -0.000365613 7.94576e-05 6.94413e-10 1.10521e-07 
-0.0494673 9.01937e-05 0.0745911 -0.022589 -0.00459098 0.0772939 1482 1327 0 0.00368028 0.00134455 -0.00154332 4.23988e-08 6.75368e-06 
-0.0645667 -0.0124593 0.0828667 -0.0657743 -0.0143134 0.100729 1428 84 0 -0.000514974 -0.00104063 0.00135476 8.76585e-09 1.39537e-06 
-0.0645667 -0.0124593 0.0828667 -0.0184172 -0.0471721 0.105178 1428 1234 0 0.000445279 8.45792e-05 -0.000675637 2.50823e-08 3.99397e-06 
-0.0515747 -0.01728 0.0707275 0.00849751 0.00202489 0.0936098 1779 526 0 5.59606e-06 6.36556e-05 0.000148911 2.49879e-09 3.97715e-07 
-0.0662806 -0.010648 0.0653172 -0.0241699 0.00281363 0.0998211 1298 1229 0 -0.00110293 -0.00067792 0.00187141 3.68686e-08 5.87213e-06 
-0.0662806 -0.010648 0.0653172 -0.0376445 -0.00158173 0.0498019 1298 859 0 -0.00368327 -0.00180908 -0.00354679 6.43908e-08 1.02613e-05 
0.184424 0.106565 -0.221586 0.170654 0.171775 0.0787302 1711 1926 0 -0.0177792 -0.0303025 -0.0089194 2.43262e-07 3.89056e-05 
0.0837337 -0.131129 -0.0442222 0.119255 -0.113735 -0.0921188 4 1259 0 -0.000617101 -0.00137408 -0.000840383 3.53085e-08 5.62348e-06 
0.170654 0.171775 0.0787302 0.0690259 0.00677318 0.0387193 1926 436 0 -0.00322403 -0.0122362 0.00342571 7.4764e-08 1.19168e-05 
0.170654 0.171775 0.0787302 0.126016 0.180935 0.0952706 1926 322 0 -0.0268127 -0.0168695 -0.0181675 2.12182e-07 3.39135e-05 
-0.0479528 -0.110376 0.0154832 -0.010226 -0.00108065 0.00898157 1290 237 0 -0.000426354 0.000360071 -0.000644047 1.41113e-08 2.24651e-06 
-0.0479528 -0.110376 0.0154832 -0.00555171 -0.119531 0.0579553 1290 957 0 0.000908301 -0.000443691 0.000642074 8.79989e-09 1.40079e-06 
0.0114318 -0.037736 0.0112722 0.014144 -0.054491 0.00138165 2261 274 0 -0.00765999 0.00128948 0.00346417 8.3205e-08 1.32645e-05 
-0.0226551 -0.00464957 0.0772735 0.00243351 -0.0914229 0.0795195 1327 1872 0 -0.000942531 -0.00267422 -0.00271777 8.91681e-09 1.41941e-06 
-0.0226551 -0.00464957 0.0772735 -0.00152852 -0.0360597 0.0443884 1327 1624 0 0.000481516 0.00021734 -0.000156541 4.26434e-09 6.78748e-07 
0.00112548 -0.0847939 0.0966191 -0.00555171 -0.119531 0.0579553 1919 957 0 -0.00173443 0.00170129 -0.000178637 3.17367e-08 5.05425e-06 
0.00112548 -0.0847939 0.0966191 0.0183711 -0.0601951 0.0544383 1919 1803 0 0.00379737 -0.00262807 0.000626239 5.08785e-08 8.10578e-06 
0.0183711 -0.0601951 0.0544383 0.0180021 -0.0357312 0.0836597 1803 1138 0 0.00343815 -0.00328592 0.000163852 5.22416e-08 8.32316e-06 
0.0183711 -0.0601951 0.0544383 -0.0154209 -0.00781377 0.0685582 1803 1283 0 0.000174903 0.000225094 -0.000338337 1.71024e-08 2.72285e-06 
0.00243351 -0.0914229 0.0795195 0.0166961 -0.00219899 0.0413848 1872 250 0 -0.00142531 0.0013354 0.00251166 3.8273e-08 6.09599e-06 
0.00243351 -0.0914229 0.0795195 0.0180021 -0.0357312 0.0836597 1872 1138 0 -0.00378564 -1.53717e-05 0.000525213 4.95087e-08 7.88733e-06 
0.0103835 -0.0217885 0.137045 -0.0813541 0.0227955 0.0885666 1217 384 0 -0.00161722 -0.000843589 0.00178717 3.35851e-08 5.3488e-06 
0.0103835 -0.0217885 0.137045 0.0180021 -0.0357312 0.0836597 1217 1138 0 0.00164193 0.00253408 -0.00103001 4.01577e-08 6.3964e-06 
0.0103835 -0.0217885 0.137045 -0.00719713 -0.00145338 0.103788 1217 5 0 -0.00146007 -0.00115149 -0.000477898 3.21394e-08 5.11842e-06 
-0.0787733 0.0552122 0.0328854 0.0272411 0.0418625 0.0845066 724 1142 0 0.000943293 0.000184746 -0.000561553 1.41496e-08 2.25261e-06 
-0.00919244 -0.0581815 0.0443773 -0.0182453 0.0243966 0.0868821 1701 881 0 -0.00226783 0.00315716 0.00171242 1.971e-08 3.13817e-06 
-0.00919244 -0.0581815 0.0443773 0.000831095 -0.0358651 0.0122898 1701 1596 0 0.00847925 0.000762409 0.00347215 8.77256e-08 1.39864e-05 
-0.00919244 -0.0581815 0.0443773 0.0263364 -0.0629028 0.0594411 1701 2060 0 -0.00121606 0.00282096 -0.000205684 4.66955e-08 7.43873e-06 
-0.00919244 -0.0581815 0.0443773 0.00707472 0.017833 0.00144626 1701 953 0 -0.00518887 -0.00277412 -0.00431383 7.83598e-08 1.24908e-05 
-0.00719713 -0.00145338 0.103788 0.00849173 0.0020302 0.0936037 5 526 0 -0.0020616 -0.00074573 -0.000829396 3.4718e-08 5.52936e-06 
0.126016 0.180935 0.0952706 0.000354539 -0.160989 -0.0317245 322 402 0 -0.00623151 -0.00348557 -0.00516295 1.77551e-08 2.82682e-06 
-0.0456733 -0.0209195 0.0321347 -0.0214539 -0.0794746 0.0415807 448 2152 0 0.000133902 0.00027181 -0.000369859 3.64405e-08 5.80389e-06 
0.014579 -0.116327 0.0792965 0.0264917 -0.0750923 0.0634816 1571 629 0 0.00113238 -0.000506337 0.0014765 3.66667e-08 5.83994e-06 
0.014579 -0.116327 0.0792965 -0.0620482 -0.0934744 0.0791235 1571 1455 0 -0.000270972 -0.00056258 -0.00154435 1.87972e-08 2.99278e-06 
0.014579 -0.116327 0.0792965 -0.0660665 -0.0437353 0.0172005 1571 1261 0 -0.000709159 -0.000803893 -0.00114498 2.76859e-08 4.40877e-06 
-0.00555171 -0.119531 0.0579553 -0.0246932 0.00958049 0.0191501 957 563 0 -0.000987752 0.000306397 -0.000220254 1.5115e-08 2.40636e-06 
-0.109009 -0.0252428 0.0812108 -0.0495031 8.04958e-05 0.0745953 1748 1482 0 0.000317059 -3.6991e-05 -5.23862e-05 6.82444e-10 1.08616e-07 
-0.109009 -0.0252428 0.0812108 -0.0660665 -0.0437353 0.0172005 1748 1261 0 -0.000230407 -6.74259e-05 -0.00052523 7.75271e-09 1.23407e-06 
0.0263364 -0.0629028 0.0594411 -0.0224854 -0.030044 0.0870925 2060 1255 0 -0.000269436 0.000725255 0.000852728 5.37182e-09 8.55042e-07 
-0.00314325 -0.000436179 0.10249 0.0272411 0.0418625 0.0845066 1030 1142 0 -0.00126386 -0.000538548 0.000341405 3.53504e-08 5.63015e-06 
-0.00314325 -0.000436179 0.10249 -0.0231802 0.00875656 0.0865449 1030 2031 0 0.000642868 -0.000231907 -0.000473389 1.57258e-08 2.50362e-06 
0.00707472 0.017833 0.00144626 -0.0293444 -0.0150624 0.064126 953 1607 0 -0.00431033 1.58336e-06 -0.00327704 6.56774e-08 1.04666e-05 
0.00849173 0.0020302 0.0936037 0.000590304 -0.00952803 0.0761175 526 467 0 -0.00559749 1.10309e-06 0.00101685 6.04702e-08 9.63573e-06 
0.00849173 0.0020302 0.0936037 -0.0293444 -0.0150624 0.064126 526 1607 0 0.00415384 -0.000303514 -0.00152692 4.28927e-08 6.83242e-06 
-0.178992 -0.0631733 -0.0759561 -0.00193156 -0.0302346 0.0048282 487 385 0 0.000432453 -0.00427884 -0.00080734 8.02225e-08 1.27882e-05 
-0.178992 -0.0631733 -0.0759561 -0.0827648 -0.119368 -0.0318895 487 509 0 0.000890982 0.00133482 -0.00162614 3.68587e-08 5.87055e-06 
-0.0214539 -0.0794746 0.0415807 -0.00193156 -0.0302346 0.0048282 2152 385 0 0.000576821 0.000468967 -0.000123997 7.39563e-09 1.17722e-06 
-0.00193156 -0.0302346 0.0048282 -0.010226 -0.00108065 0.00898157 385 237 0 -0.00655785 0.000972948 0.00376284 6.13924e-08 9.78287e-06 
-0.00193156 -0.0302346 0.0048282 -0.0504937 -0.0285589 0.0309705 385 2098 0 0.00539603 -0.00690633 -0.00813532 1.161e-07 1.85207e-05 
-0.0620482 -0.0934744 0.0791235 -0.0296491 -0.0674631 0.0430359 1455 1334 0 0.000477408 -0.00186971 -0.00274975 3.95365e-08 6.29739e-06 
-0.0449053 -0.0172357 0.0330715 -0.010226 -0.00108065 0.00898157 2277 237 0 -0.000274515 7.79491e-05 0.000325466 2.1891e-08 3.48558e-06 
-0.00152852 -0.0360597 0.0443884 -0.00717334 -0.078142 0.0538828 1624 2153 0 -4.73609e-05 -2.47282e-05 0.000112417 1.93307e-09 3.07669e-07 
-0.0660665 -0.0437353 0.0172005 -0.0154209 -0.00781377 0.0685582 1261 1283 0 0.000323508 -0.00031556 0.000191843 1.39149e-08 2.21524e-06 
-0.0660665 -0.0437353 0.0172005 -0.0296491 -0.0674631 0.0430359 1261 1334 0 0.000228473 -0.00195182 -0.00142932 1.299e-08 2.06795e-06 
-0.0660665 -0.0437353 0.0172005 -0.0500978 -0.0343699 0.00105148 1261 655 0 -0.00111353 -0.000840624 -0.000854122 2.88018e-08 4.58658e-06 
-0.0246932 0.00958049 0.0191501 -0.0500978 -0.0343699 0.00105148 563 655 0 0.00150769 -0.000709713 -0.00165679 3.49812e-08 5.57131e-06 
-0.0154209 -0.00781377 0.0685582 -0.022936 -0.0523112 0.0527139 1283 1285 0 0.000477718 0.000322434 -0.000414993 2.22451e-08 3.54198e-06 
-0.0619575 0.015995 0.129462 -0.0564209 0.00698346 0.110326 453 1740 0 0.00379101 0.00751962 8.20939e-05 8.37874e-08 1.33575e-05 
-0.0224854 -0.030044 0.0870925 0.0378235 0.0381834 0.0370935 1255 1886 0 -0.000148814 4.16382e-06 -0.00039021 2.05628e-08 3.27402e-06 
-0.0293444 -0.0150624 0.064126 -0.0445246 0.000448142 0.115506 1607 2000 0 7.70335e-05 0.000507152 0.000142248 1.41995e-10 2.25993e-08 
-0.0293444 -0.0150624 0.064126 -0.00737945 -0.00825775 0.071742 1607 1130 0 -0.000856816 -3.06002e-05 -0.00581617 6.59836e-08 1.05154e-05 
-0.0827648 -0.119368 -0.0318895 -0.0426739 -0.104982 0.000130931 509 919 0 0.00245394 -0.000901967 -0.00332735 5.493e-08 8.75195e-06 
-0.00188618 -0.153666 0.00798046 -0.00428176 -0.156444 0.105255 701 2044 0 -0.000470843 -0.000420989 -1.41784e-05 1.4322e-08 2.28006e-06 
-0.0504937 -0.0285589 0.0309705 -0.0481761 -0.0838124 0.01014 2098 316 0 0.00371772 -0.00207699 -0.00243439 5.01019e-08 7.98192e-06 
-0.0504937 -0.0285589 0.0309705 -0.0412966 -0.0641829 0.0790912 2098 2223 0 0.000196033 -0.00741293 -0.00304224 6.91053e-08 1.10136e-05 