ITEM: TIMESTEP
18850000
ITEM: NUMBER OF ENTRIES
1460
ITEM: BOX BOUNDS ff ff ff
-0.01 0.45
-0.15 0.15
-0.08 0.1
ITEM: ENTRIES c_ppc[1] c_ppc[2] c_ppc[3] c_ppc[4] c_ppc[5] c_ppc[6] c_ppc[7] c_ppc[8] c_ppc[9] c_ppc[10] c_ppc[11] c_ppc[12] c_ppc[13] c_ppc[14] 
-11.0848 18.5088 8.40427 -8.66161 30.6759 14.9764 2067 890 0 -0.528116 -0.344153 -0.431372 2.52851e-06 0.000425003 
-1.43582e-07 -1.63042e-07 1.20609e-09 1.32656e-07 -4.30619e-08 -3.22648e-10 665 23 0 -0.319395 -1.35431 -0.211736 2.37289e-06 0.000397398 
0.126461 -0.232874 -0.0203426 -0.139621 0.180561 0.223095 2347 857 0 -0.00112344 -0.08101 -0.0291929 4.81783e-07 7.74275e-05 
-4.02035 3.83328 -3.17443 -0.751137 2.94875 0.0299538 1287 2018 0 0.319287 -0.882073 -0.232116 1.64249e-06 0.000270562 
-0.751137 2.94875 0.0299538 -0.401796 0.0955742 -0.0620094 2018 2194 0 0.194666 -0.221899 -0.0614416 3.27988e-07 5.2546e-05 
-0.233813 -0.377186 -0.145786 -0.144154 -0.212527 -0.144186 1097 2158 0 0.000886346 -0.00091869 -0.00173422 4.51219e-08 7.18783e-06 
1.39463 1.0692 -0.423673 0.48638 0.6327 1.44822 1479 1728 0 -0.0105178 -0.0628484 -0.057438 5.80966e-07 9.35577e-05 
-0.0375678 -0.136303 -0.151096 -0.0928951 -0.0833258 -0.0751988 927 1481 0 -0.0020964 0.00177363 -0.00165249 2.5245e-08 4.01989e-06 
0.48638 0.6327 1.44822 0.016674 0.169516 -0.0456007 1728 1300 0 -0.0104793 -0.00700529 -0.000791197 8.30729e-08 1.32434e-05 
0.48638 0.6327 1.44822 -0.18632 0.0365094 0.145503 1728 1277 0 -0.0816844 0.00415996 -0.0817612 2.68056e-07 4.28924e-05 
0.48638 0.6327 1.44822 -0.106372 0.350781 0.363459 1728 519 0 0.0383749 -0.144591 -0.0978898 5.40037e-07 8.68934e-05 
0.0419736 -0.183598 -0.0425336 -0.0333885 -0.0492591 0.0129335 1513 2196 0 -0.00126513 0.00280814 0.000412925 1.49142e-09 2.37374e-07 
-0.106372 0.350781 0.363459 -0.022515 -0.115743 -0.00540033 519 1401 0 0.00234798 -0.0304267 -0.0234832 5.59421e-08 8.9134e-06 
-0.106372 0.350781 0.363459 -0.0333885 -0.0492591 0.0129335 519 2196 0 0.0132698 -0.0276676 -0.0270819 1.16456e-07 1.85778e-05 
-0.113579 -0.172008 -0.0499114 -0.0826376 -0.155861 -0.0552165 1098 1284 0 0.000860929 -0.00084123 -0.000122032 2.29752e-08 3.6583e-06 
0.059506 -0.163051 -0.0561525 0.00346569 -0.0536372 0.00945444 2126 1268 0 0.00030093 0.000525294 -0.000706776 2.84813e-08 4.53551e-06 
0.112755 0.111819 0.0492548 -0.114458 -0.514898 -0.0117919 1773 1618 0 -0.00285186 -0.0445214 0.0106155 8.05181e-08 1.28354e-05 
0.199538 -0.314417 0.177473 -0.139392 0.181411 0.223718 466 857 0 -0.0141645 0.0239799 -0.0124484 6.72289e-08 1.07142e-05 
-0.121202 0.201651 0.530854 -0.443707 -0.0776537 -0.365099 1275 1082 0 0.029918 -0.029364 -0.00670551 2.69527e-07 4.3129e-05 
-0.121202 0.201651 0.530854 0.35929 0.307582 0.617773 1275 2199 0 -0.00203551 0.000510149 -0.00983397 8.25633e-08 1.3162e-05 
-0.0405566 -0.0726384 -0.0333066 -0.443707 -0.0776537 -0.365099 2112 1082 0 -0.0664626 -0.000468376 -0.0344051 2.42722e-07 3.88188e-05 
-0.0405566 -0.0726384 -0.0333066 -0.312108 0.0965915 0.0357812 2112 704 0 -0.0388611 -0.0308971 0.014229 2.59451e-07 4.15084e-05 
-0.0405566 -0.0726384 -0.0333066 0.0919137 -0.22938 0.0752309 2112 20 0 -0.00992624 0.00764234 0.00230165 7.75003e-09 1.23365e-06 
-0.443707 -0.0776537 -0.365099 -0.312108 0.0965915 0.0357812 1082 704 0 0.0390895 -0.0403759 0.00405904 3.02793e-07 4.84849e-05 
0.490501 0.158837 0.0281791 -0.217408 -0.0984284 -0.077847 592 2108 0 -0.0018495 0.00107336 0.0012435 4.69662e-08 7.48189e-06 
-0.312108 0.0965915 0.0357812 -0.156587 0.0365572 0.11459 704 2318 0 0.046816 -0.0218162 0.00215634 2.09457e-07 3.34762e-05 
-0.312108 0.0965915 0.0357812 -0.101911 -0.091831 -0.0645646 704 1352 0 -0.0364933 -0.0209905 -0.0297307 2.51377e-07 4.02099e-05 
-0.217408 -0.0984284 -0.077847 0.033401 0.0279559 0.0451821 2108 2115 0 0.00576706 -0.00821948 -0.0108891 8.86764e-08 1.41383e-05 
-0.156587 0.0365572 0.11459 0.0138167 -0.0166699 0.0314509 2318 1445 0 0.00198422 -0.0062428 7.77461e-06 5.83696e-08 9.30062e-06 
0.033401 0.0279559 0.0451821 0.00626976 0.0898214 0.0615429 2115 1901 0 -0.00819367 -0.0122245 0.000660681 5.38279e-08 8.57617e-06 
0.033401 0.0279559 0.0451821 0.140217 -0.0145771 0.00503956 2115 796 0 -0.0150905 -0.0265658 -0.0072981 1.92637e-07 3.07776e-05 
0.033401 0.0279559 0.0451821 0.00655541 0.106728 0.180815 2115 2310 0 0.00167482 -0.000818443 -0.0217916 1.86371e-07 2.97726e-05 
0.00508902 0.0245269 0.0281507 0.140217 -0.0145771 0.00503956 1335 796 0 0.0177168 -0.00332666 -0.00210434 9.28473e-08 1.48045e-05 
0.00508902 0.0245269 0.0281507 0.0182173 0.0272131 0.101559 1335 476 0 -5.43547e-05 -7.8025e-05 -4.37588e-05 2.55596e-08 4.07001e-06 
0.0138167 -0.0166699 0.0314509 -0.0402903 0.0347873 -0.00247745 1445 1958 0 -0.00885581 -0.00613331 0.00113764 9.6597e-08 1.54035e-05 
0.00626976 0.0898214 0.0615429 -0.0561248 -0.0531328 -0.0503021 1901 520 0 -0.00107732 -0.0256023 0.00320452 1.29134e-07 2.06053e-05 
0.140217 -0.0145771 0.00503956 -0.0814814 0.059158 -0.0339622 796 1680 0 -0.00945488 -0.0424075 0.00225394 2.5281e-07 4.04403e-05 
-0.0402903 0.0347873 -0.00247745 -0.0561248 -0.0531328 -0.0503021 1958 520 0 -0.00787055 -0.00712772 -0.00245029 7.27931e-08 1.16022e-05 
-0.0402903 0.0347873 -0.00247745 0.016113 -0.0205301 0.0505291 1958 197 0 0.00137916 -0.000267202 -0.000810924 2.41608e-08 3.84715e-06 
-0.0561248 -0.0531328 -0.0503021 0.0516958 -0.0772257 0.0319549 520 241 0 -0.00870827 -0.0137368 -0.00194843 1.22953e-07 1.96167e-05 
-0.0814814 0.059158 -0.0339622 0.0453596 -0.0630857 -0.0261512 1680 58 0 0.00303172 -0.00342594 0.000719001 1.59618e-08 2.5412e-06 
-0.0814814 0.059158 -0.0339622 0.0475383 0.00528375 0.0656257 1680 1216 0 -0.0145598 -0.057502 -0.00154521 2.99212e-07 4.79079e-05 
-0.0814814 0.059158 -0.0339622 -0.0592208 0.185196 -0.081191 1680 1662 0 0.000515796 0.00303453 -0.00390123 2.74242e-08 4.36707e-06 
0.0453596 -0.0630857 -0.0261512 0.0475383 0.00528375 0.0656257 58 1216 0 0.0112103 -0.00736917 -0.00070253 1.24975e-07 1.99401e-05 
0.0107972 -0.0978999 0.0127993 -0.078291 0.0116442 0.0646473 529 1308 0 -0.00229089 -0.00118172 -0.00351567 3.50273e-08 5.57866e-06 
0.0516958 -0.0772257 0.0319549 0.0400999 -0.012765 0.0989471 241 210 0 -0.000533976 -0.0136895 -0.00094043 1.30921e-07 2.08913e-05 
0.0475383 0.00528375 0.0656257 0.0400999 -0.012765 0.0989471 1216 210 0 0.0127621 -0.0352325 -0.00345746 2.05806e-07 3.28903e-05 
0.0475383 0.00528375 0.0656257 0.0440099 0.00329442 0.036468 1216 935 0 -0.015425 -0.0319789 -0.000127161 2.03202e-07 3.24724e-05 
0.657913 -0.771847 -0.0668996 0.635703 -0.577091 0.203975 619 568 0 -0.00643894 0.00154285 0.00221583 4.76637e-08 7.59313e-06 
-0.101911 -0.091831 -0.0645646 0.0742669 0.0449097 0.160449 1352 121 0 -0.000160184 -0.000246805 -5.97397e-05 5.72806e-08 9.1269e-06 
0.0742669 0.0449097 0.160449 0.0223317 0.179982 0.100403 121 708 0 -0.00509917 0.00140891 -0.000869242 4.68829e-08 7.46862e-06 
0.0742669 0.0449097 0.160449 -0.00671594 0.0255793 0.190169 121 983 0 0.00663098 -0.00548967 -0.00548947 1.10082e-07 1.75586e-05 
0.0223317 0.179982 0.100403 0.00655541 0.106728 0.180815 708 2310 0 -0.00310524 0.00850164 0.00363665 1.02856e-07 1.64036e-05 
0.0223317 0.179982 0.100403 0.0740395 0.258884 0.0198596 708 1388 0 -0.00701205 -0.00691459 -0.00640164 9.00187e-08 1.43527e-05 
0.0223317 0.179982 0.100403 -0.0592208 0.185196 -0.081191 708 1662 0 -0.00209263 -0.00475712 -0.00225453 4.76095e-08 7.58448e-06 
-0.0592208 0.185196 -0.081191 0.0740395 0.258884 0.0198596 1662 1388 0 -0.00928822 0.0155477 -0.00591078 1.47377e-07 2.35249e-05 
-0.0592208 0.185196 -0.081191 -0.109564 0.126116 0.161441 1662 826 0 0.00820933 -0.0224086 -0.00248301 1.67409e-07 2.67332e-05 
0.0182173 0.0272131 0.101559 0.0855909 0.0746823 0.103745 476 2296 0 -0.000116475 -0.000179472 -0.000266346 2.50856e-08 3.99449e-06 
0.016113 -0.0205301 0.0505291 0.00374579 -0.0201988 0.0928968 197 1913 0 5.18432e-05 4.77875e-05 0.000635235 2.1506e-09 3.42293e-07 
0.0855909 0.0746823 0.103745 0.0510716 0.0511012 0.170878 2296 1956 0 0.000593675 -0.000834587 -0.00135122 4.11018e-08 6.54691e-06 
-0.078291 0.0116442 0.0646473 -0.109564 0.126116 0.161441 1308 826 0 -0.00592124 0.00238323 -0.00107065 6.92737e-08 1.10405e-05 
0.106203 -0.0824864 -0.111173 0.141344 -0.0531213 0.233553 1471 1226 0 0.00413407 -0.0117912 -0.00737564 1.36065e-07 2.17143e-05 
0.141344 -0.0531213 0.233553 0.00433821 0.0781485 0.14623 1226 29 0 0.0297737 -0.031131 -0.0011189 2.70462e-07 4.32794e-05 
0.00655541 0.106728 0.180815 0.0740395 0.258884 0.0198596 2310 1388 0 -0.0092224 -0.00311033 0.00106421 1.13739e-07 1.81433e-05 
0.00655541 0.106728 0.180815 -0.0304642 -0.253581 -0.111578 2310 925 0 -0.00340203 0.0219157 0.0097804 8.60161e-08 1.37134e-05 
0.00655541 0.106728 0.180815 -0.0471482 0.114788 0.229821 2310 190 0 0.005837 -0.00447934 -0.0111067 1.25372e-07 2.00037e-05 
0.0740395 0.258884 0.0198596 0.128813 0.151032 0.0593854 1388 1465 0 -0.0340134 0.00167213 -0.0131542 2.35798e-07 3.77062e-05 
0.128813 0.151032 0.0593854 0.120852 -0.0596869 -0.0504391 1465 781 0 -0.00921667 -0.0116441 0.00640217 1.01778e-07 1.62314e-05 
0.128813 0.151032 0.0593854 0.238214 0.041482 0.101845 1465 597 0 -0.0199081 -0.00412769 -0.033857 2.43945e-07 3.90153e-05 
-0.00671594 0.0255793 0.190169 0.00843971 0.0631517 0.082474 983 2119 0 0.00282422 -0.00487437 -0.00448273 6.26452e-08 9.98276e-06 
-0.00671594 0.0255793 0.190169 0.00769263 -0.132695 0.191359 983 1765 0 0.000100543 -9.27844e-05 -0.000334142 1.81162e-08 2.88433e-06 
0.00374579 -0.0201988 0.0928968 -0.0145164 -0.00976473 0.107826 1913 1665 0 -0.00191091 0.00109245 -0.000994332 1.27141e-08 2.02402e-06 
-0.109564 0.126116 0.161441 -0.0415728 0.0432897 0.114185 826 1418 0 -0.00116599 -0.0374835 -0.00398649 2.05013e-07 3.27631e-05 
-0.109564 0.126116 0.161441 0.00806291 -0.0118711 0.206564 826 602 0 0.00575275 -0.00324352 -0.00323371 4.9711e-08 7.91958e-06 
0.0510716 0.0511012 0.170878 0.142979 -0.00798577 0.0830077 1956 1056 0 0.000901608 0.00147232 -0.00159183 2.8835e-08 4.59187e-06 
0.0510716 0.0511012 0.170878 -0.00453605 0.186416 -0.0162568 1956 1943 0 0.00307655 0.00245917 -0.00282282 2.86189e-08 4.55743e-06 
0.0510716 0.0511012 0.170878 0.0280176 0.0166493 0.213575 1956 1122 0 -0.000366729 -0.00496455 -0.00122622 5.5685e-08 8.87238e-06 
0.028936 -0.00772024 0.0608855 -0.103364 -0.119269 0.157248 1654 168 0 0.000210356 -0.000444953 0.000871522 1.48517e-08 2.36442e-06 
0.635703 -0.577091 0.203975 0.0261873 -0.673208 0.25724 568 1533 0 -0.0162375 -0.0240853 -0.0314824 2.01244e-07 3.21582e-05 
-0.28825 0.0832518 0.689337 -0.14265 0.300138 -0.0491375 1904 2305 0 -0.00447334 -0.00875624 -0.00186526 1.51937e-07 2.42551e-05 
-0.28825 0.0832518 0.689337 -0.121369 0.499965 0.0954096 1904 670 0 0.00532621 -0.00527916 -0.00535252 1.22362e-08 1.94793e-06 
-0.0471482 0.114788 0.229821 -0.0426181 -0.0380015 0.113875 190 339 0 0.0119868 0.00031244 -0.0145447 1.24397e-07 1.98477e-05 
-0.0471482 0.114788 0.229821 0.173602 -0.0165933 0.24113 190 771 0 -0.00642014 -0.00814592 -0.00260391 1.15235e-07 1.83825e-05 
-0.14265 0.300138 -0.0491375 -0.121369 0.499965 0.0954096 2305 670 0 -0.00207901 0.0047549 -0.00332437 7.65089e-08 1.21954e-05 
0.130935 -0.099047 0.201855 0.0777961 -0.100497 0.16401 1090 852 0 -0.00387056 -0.00185094 -0.00561365 5.38836e-08 8.58506e-06 
0.00806291 -0.0118711 0.206564 -0.00675945 -0.0400331 0.125284 602 804 0 0.00771528 0.00100718 -0.00717896 6.93074e-08 1.10459e-05 
-0.00453605 0.186416 -0.0162568 0.0110189 -0.0160119 0.00924512 1943 429 0 -0.00111187 -0.00161249 -0.002226 4.55498e-08 7.25606e-06 
0.0404598 -0.308431 0.357554 0.0851389 -0.259595 0.0808098 1910 647 0 -0.00281732 0.000388636 -0.00295393 6.6662e-09 1.0611e-06 
0.0851389 -0.259595 0.0808098 0.0570249 -0.0997841 0.0701919 647 1804 0 -0.00476639 -0.00135224 -0.00107131 5.40026e-08 8.60404e-06 
-0.0426181 -0.0380015 0.113875 0.0570249 -0.0997841 0.0701919 339 1804 0 0.0131691 0.00403685 -0.00717702 9.07263e-08 1.44657e-05 
0.173602 -0.0165933 0.24113 0.142979 -0.00798577 0.0830077 771 1056 0 -0.0040577 -0.0147942 -0.0016862 1.24277e-07 1.98284e-05 
0.173602 -0.0165933 0.24113 0.0547412 -0.106213 0.0927338 771 1139 0 0.00108917 -6.81228e-05 -0.00238849 3.52737e-08 5.61792e-06 
0.173602 -0.0165933 0.24113 0.213096 -0.0984164 0.0740669 771 306 0 -0.00268061 0.00514023 -0.00203671 6.32491e-08 1.00791e-05 
0.213096 -0.0984164 0.0740669 -0.121369 0.499965 0.0954096 306 670 0 -0.00637617 0.039585 -0.00744837 1.06469e-07 1.69811e-05 
0.029869 -0.0971308 0.123924 0.0777961 -0.100497 0.16401 1049 852 0 -0.000351803 8.83267e-05 -0.000375646 3.8866e-08 6.19051e-06 
0.142979 -0.00798577 0.0830077 0.0773976 0.0330394 0.0712374 1056 1166 0 -0.00927249 -0.0108831 -0.00143388 1.1093e-07 1.76942e-05 
0.142979 -0.00798577 0.0830077 0.0110189 -0.0160119 0.00924512 1056 429 0 0.00347794 -0.00302354 -0.00423902 5.79973e-08 9.24124e-06 
-0.00675945 -0.0400331 0.125284 0.0284266 -0.0581765 0.121289 804 734 0 0.000685014 -0.000953451 -0.00182116 7.64524e-09 1.21696e-06 
-0.00675945 -0.0400331 0.125284 -0.0332488 -0.00625432 0.144978 804 962 0 -1.61567e-05 0.000367468 0.000421977 6.14901e-09 9.78765e-07 
0.0773976 0.0330394 0.0712374 0.0110189 -0.0160119 0.00924512 1166 429 0 -0.00281146 -0.00242459 -0.00487998 3.81191e-09 6.0673e-07 
0.0773976 0.0330394 0.0712374 0.0966884 -0.0300645 0.0574553 1166 937 0 -0.00830029 -0.00729816 -0.00364466 8.98683e-08 1.43286e-05 
-0.121369 0.499965 0.0954096 0.138421 0.174089 0.337003 670 1743 0 -0.00255781 -0.00484686 -0.00305117 7.39911e-08 1.17934e-05 
0.0570249 -0.0997841 0.0701919 0.0203548 -0.148841 0.00120172 1804 1194 0 -0.00287975 -0.00146557 -0.00358601 1.29089e-09 2.05456e-07 
0.0570249 -0.0997841 0.0701919 0.0876243 -0.0872662 0.187344 1804 1568 0 -0.000141566 -0.00104409 0.000507413 2.48096e-08 3.95051e-06 
0.0570249 -0.0997841 0.0701919 -0.0538366 -0.135465 0.0359849 1804 1363 0 0.000836943 -0.000228334 -0.00305526 4.76594e-08 7.59243e-06 
0.0547412 -0.106213 0.0927338 0.0881282 -0.0869199 0.13818 1139 2084 0 0.00158663 0.00147236 -0.00277181 4.06639e-08 6.47711e-06 
0.0876243 -0.0872662 0.187344 -0.0212752 -0.0465851 0.156761 1568 1885 0 -0.000268172 0.00385947 -0.00565822 5.80316e-09 9.23708e-07 
0.0284266 -0.0581765 0.121289 0.0203548 -0.148841 0.00120172 734 1194 0 0.000332285 0.000514443 -0.000549338 1.9309e-08 3.0743e-06 
0.0110189 -0.0160119 0.00924512 0.00373135 -0.000529535 0.0335965 429 2216 0 0.00761721 -0.0144797 -0.00104679 1.31721e-07 2.10193e-05 
0.0110189 -0.0160119 0.00924512 0.0513686 -0.0191523 0.0300277 429 631 0 -0.00840218 0.00732036 -0.00604872 1.19648e-07 1.90881e-05 
-0.0332488 -0.00625432 0.144978 0.00373135 -0.000529535 0.0335965 962 2216 0 2.12156e-06 0.00142849 0.000338563 2.88968e-08 4.60171e-06 
-0.0332488 -0.00625432 0.144978 0.0134144 0.0601499 0.166169 962 606 0 -0.000355859 0.000185392 -0.000218661 2.32335e-08 3.69944e-06 
-0.0332488 -0.00625432 0.144978 0.00377336 -0.0233473 0.182603 962 948 0 0.000649352 5.28248e-05 -0.000179859 1.32398e-08 2.10773e-06 
-0.297626 0.238418 0.199023 0.0284462 0.102995 0.389521 94 938 0 0.00324637 -0.00382363 -0.00186602 2.76243e-08 4.39897e-06 
-0.380806 0.157362 0.157773 -0.432581 -0.303934 -0.0392582 1125 1029 0 0.00132471 -0.00032278 7.61941e-05 7.41435e-08 1.18178e-05 
0.0792987 0.0561222 -0.087743 -0.00386701 -0.0444469 0.0641843 1700 1058 0 -0.00542091 -0.00679735 -0.00247111 7.14571e-08 1.1389e-05 
-0.00386701 -0.0444469 0.0641843 0.0513686 -0.0191523 0.0300277 1058 631 0 0.00645261 -0.0118418 0.00719548 1.26758e-07 2.02252e-05 
-0.00386701 -0.0444469 0.0641843 -0.076699 -0.065569 0.0324864 1058 1874 0 0.000903978 0.00283417 -0.00208583 5.5785e-08 8.88834e-06 
-0.00386701 -0.0444469 0.0641843 0.0502222 0.153791 -0.0489986 1058 813 0 0.0065315 0.00394142 -0.00343573 1.68747e-08 2.68659e-06 
0.00671985 -0.038738 0.131107 0.00377336 -0.0233473 0.182603 930 948 0 -0.000274393 0.000137867 1.32145e-05 1.13299e-08 1.80362e-06 
0.0422247 -0.0995944 0.0815844 -0.0661911 0.114989 0.0399242 2080 1666 0 2.78212e-06 -1.49477e-06 -5.61191e-06 3.36327e-08 5.3564e-06 
-0.076699 -0.065569 0.0324864 -0.0525054 -0.159781 0.0484693 1874 2192 0 0.00033515 0.000409008 -0.000800688 3.80707e-08 6.06374e-06 
-0.076699 -0.065569 0.0324864 -0.0257598 -0.0813193 0.127218 1874 698 0 0.00142828 0.000573589 0.00121323 1.03508e-08 1.64773e-06 
0.02844 -0.0521727 0.105566 -0.00241543 -0.0134226 0.218827 987 1570 0 -1.22389e-05 0.00024595 -0.000152569 2.54304e-08 4.04942e-06 
-0.00241543 -0.0134226 0.218827 0.0444068 0.00991843 0.116528 1570 1592 0 -0.00105423 -0.00155114 -0.000357341 4.02655e-08 6.4136e-06 
-0.0444676 -0.0332562 0.112832 -0.0535853 -0.000286529 0.141292 2229 447 0 -0.0105655 0.000480089 -0.000927173 8.38331e-08 1.33648e-05 
-0.0444676 -0.0332562 0.112832 0.0481861 -0.0495682 0.123883 2229 2012 0 0.00320046 0.000319855 0.00116845 1.56555e-08 2.49242e-06 
-0.0444676 -0.0332562 0.112832 0.0444068 0.00991843 0.116528 2229 1592 0 0.00436025 0.000482593 -0.00132598 2.71084e-08 4.31676e-06 
-0.0367736 -0.165609 0.0848769 -0.0397016 -0.158038 0.162841 1739 1724 0 -0.00325843 0.000240264 -0.0016321 5.34031e-08 8.50841e-06 
-0.0257598 -0.0813193 0.127218 0.0535334 0.0054756 0.030439 698 1141 0 0.000525159 -0.000893973 0.000110185 3.83744e-08 6.11214e-06 
-0.0257598 -0.0813193 0.127218 -0.0121282 -0.0920559 0.183129 698 1105 0 -0.000422491 -3.15964e-05 0.000163988 1.22641e-08 1.95238e-06 
0.0535334 0.0054756 0.030439 -0.0175462 -0.0427984 -0.00861765 1141 264 0 0.00313513 -0.00130287 0.000949986 5.64437e-08 8.99341e-06 
0.0535334 0.0054756 0.030439 0.0738839 -0.00452956 0.0676742 1141 1296 0 -8.21475e-05 -7.35546e-05 6.29688e-05 4.41588e-09 7.02871e-07 
0.0502222 0.153791 -0.0489986 0.0230863 -0.0668389 0.240307 813 1152 0 0.000347681 -0.000341079 -1.27859e-05 2.97275e-08 4.73408e-06 
0.0502222 0.153791 -0.0489986 0.0663248 -0.0181503 -0.121892 813 1964 0 0.00853649 0.0125165 -0.0335327 2.21745e-07 3.54489e-05 
-0.013933 -0.0152183 0.0936717 -0.0175462 -0.0427984 -0.00861765 415 264 0 -0.00848504 0.00303823 -0.000689542 8.5648e-08 1.36546e-05 
-0.013933 -0.0152183 0.0936717 0.0289871 -0.0586155 0.084465 415 1121 0 0.00538556 0.00110642 0.000689846 1.73381e-08 2.76039e-06 
0.0649177 -0.0547251 0.102485 0.0345626 -0.0171049 0.0948188 793 674 0 -0.00163877 0.000597937 -0.00225084 2.96439e-08 4.72075e-06 
-0.26012 0.0787069 0.347298 -0.31832 0.00484447 0.38219 1742 772 0 -0.00203837 0.0157805 0.00741421 1.43573e-07 2.29161e-05 
-0.26012 0.0787069 0.347298 0.0344568 0.0485823 0.136619 1742 494 0 -0.00165162 -0.0198084 -0.00284288 1.20794e-07 1.92714e-05 
-0.0397016 -0.158038 0.162841 -0.0121282 -0.0920559 0.183129 1724 1105 0 -0.00111307 0.000532037 -0.000897017 4.07891e-08 6.49706e-06 
0.0289871 -0.0586155 0.084465 -0.197668 0.136397 -0.267005 1121 460 0 -0.0139362 0.0115455 -0.0219103 7.35684e-08 1.1726e-05 
0.0738839 -0.00452956 0.0676742 -0.197668 0.136397 -0.267005 1296 460 0 0.000993442 0.00101711 -0.00214456 2.3513e-08 3.74396e-06 
0.0230863 -0.0668389 0.240307 -0.0722546 -0.0182819 0.0786151 1152 1933 0 -7.03122e-05 -4.11415e-05 0.000103232 1.94652e-08 3.09918e-06 
0.0230863 -0.0668389 0.240307 0.0259472 -0.0125958 0.27443 1152 1557 0 0.000361896 0.000157149 0.000485625 3.37864e-09 5.37763e-07 
-0.0545162 0.0791728 -0.0606146 -0.0722546 -0.0182819 0.0786151 1264 1933 0 -0.000839313 0.000190035 0.000391034 2.49824e-08 3.97805e-06 
-0.0545162 0.0791728 -0.0606146 0.00723468 0.0137362 0.0533018 1264 2085 0 0.000204129 6.48025e-05 -0.000380124 2.00158e-08 3.18689e-06 
-0.0545162 0.0791728 -0.0606146 -0.0441905 -0.0441995 0.0426672 1264 1864 0 -0.000250471 -0.00106998 -0.000304858 9.46207e-09 1.50622e-06 
-0.0300189 -0.0881163 0.0541827 0.00723468 0.0137362 0.0533018 1064 2085 0 0.00114388 0.00372701 -0.000993062 1.96335e-08 3.126e-06 
0.0345626 -0.0171049 0.0948188 -0.0441905 -0.0441995 0.0426672 674 1864 0 -0.00225361 -0.00308593 -0.00238999 1.58127e-08 2.51746e-06 
-0.056131 -0.0954993 0.0422999 -0.0930985 0.0646631 0.00847558 2059 1832 0 -0.0103116 0.000181496 -0.00573776 1.03015e-07 1.64291e-05 
-0.0121282 -0.0920559 0.183129 -0.0131982 -0.07494 0.0818117 1105 984 0 -0.000958068 -0.00103223 -0.00134044 2.09849e-08 3.34124e-06 
-0.197668 0.136397 -0.267005 -0.0930985 0.0646631 0.00847558 460 1832 0 -0.00484018 0.00758786 -0.0045884 1.61496e-07 2.5786e-05 
-0.197668 0.136397 -0.267005 -0.0401245 0.0450839 -0.103618 460 651 0 0.0109539 -0.00921856 0.0053075 5.58012e-08 8.89092e-06 
-0.0131982 -0.07494 0.0818117 0.00336324 0.0222656 0.0495488 984 2006 0 0.00140694 0.000343518 -0.000746682 2.35474e-08 3.74943e-06 
0.0663248 -0.0181503 -0.121892 0.141929 0.0308007 0.121575 1964 1061 0 0.00471796 0.0197464 -0.019421 2.14446e-07 3.42771e-05 
0.0663248 -0.0181503 -0.121892 0.0344568 0.0485823 0.136619 1964 494 0 -0.00160605 0.00441427 0.0106037 1.73938e-08 2.76926e-06 
0.00723468 0.0137362 0.0533018 0.0071243 -0.00805148 0.0886607 2085 727 0 -0.00306109 0.000864921 -0.00129342 5.28706e-08 8.42349e-06 
0.00723468 0.0137362 0.0533018 -0.0155058 -0.020028 0.12039 2085 2202 0 0.000196814 -0.000492258 -0.000177481 1.89572e-08 3.01828e-06 
-0.0441905 -0.0441995 0.0426672 -0.0588343 0.0283497 0.0601472 1864 1466 0 0.0013975 0.000338204 -0.00120803 1.15724e-08 1.84223e-06 
0.0371186 -0.289248 -0.272446 0.13774 -0.337076 -0.302799 562 593 0 -0.00172536 0.00565746 0.00306171 2.0169e-08 3.21128e-06 
-0.0930985 0.0646631 0.00847558 0.00336324 0.0222656 0.0495488 1832 2006 0 -0.00424874 -0.00169995 -0.000873526 5.19965e-08 8.28407e-06 
-0.0930985 0.0646631 0.00847558 -0.0914912 -0.0492771 -0.28039 1832 136 0 -0.0238803 0.0212979 -0.0171098 2.06679e-07 3.30304e-05 
0.141929 0.0308007 0.121575 -0.153324 0.25968 0.12349 1061 626 0 0.00134483 0.00334684 -0.011688 1.16766e-07 1.86272e-05 
0.0679916 -0.0297156 0.143749 0.086007 -0.0105772 0.0918549 295 2309 0 -0.000525391 -0.00128016 0.000283416 2.83172e-08 4.50936e-06 
0.0679916 -0.0297156 0.143749 -0.0768063 0.0274039 0.0711891 295 1960 0 0.001011 0.000714901 -0.00181806 3.73938e-08 5.95584e-06 
0.00336324 0.0222656 0.0495488 0.0071243 -0.00805148 0.0886607 2006 727 0 -0.00240042 -0.00271361 -0.000977467 1.36928e-08 2.17986e-06 
0.0071243 -0.00805148 0.0886607 0.0527488 -0.0113175 0.0410954 727 1046 0 -0.00221375 -0.00032587 -0.00181465 4.8169e-08 7.6737e-06 
0.0071243 -0.00805148 0.0886607 -0.0588343 0.0283497 0.0601472 727 1466 0 -0.000823059 -0.00115394 -0.000166675 1.98765e-08 3.16469e-06 
0.0071243 -0.00805148 0.0886607 -0.0184003 0.0512537 0.13443 727 572 0 2.4982e-05 0.000660077 -0.0010025 3.56203e-08 5.67318e-06 
-0.0560938 -0.124187 0.0839065 -0.0226445 -0.0703669 0.0670254 57 1895 0 -1.67794e-05 -5.04739e-06 -0.000221859 1.57301e-08 2.50431e-06 
0.13774 -0.337076 -0.302799 -0.0239639 -0.052218 -0.28757 593 512 0 -0.00397848 0.00311668 -0.00989028 5.52834e-08 8.80833e-06 
-0.217592 0.550294 -0.528932 -0.0561967 0.282662 -0.281009 585 1099 0 0.000807737 -0.00840329 0.00431813 5.57134e-09 8.86805e-07 
-0.0126006 0.023438 -0.517642 -0.0914912 -0.0492771 -0.28039 483 136 0 0.00926104 0.00324012 0.00298386 6.43851e-08 1.02604e-05 
-0.0126006 0.023438 -0.517642 -0.153324 0.25968 0.12349 483 626 0 -0.000547677 0.00022273 0.00101979 9.93125e-08 1.58374e-05 
0.0149533 -0.212557 -0.0510872 -0.0914912 -0.0492771 -0.28039 2164 136 0 -0.00227368 -0.00118026 0.00285802 5.54395e-08 8.83322e-06 
0.0149533 -0.212557 -0.0510872 -0.265678 -0.169478 -0.197968 2164 627 0 -0.000209156 0.0060365 -0.00722639 6.80986e-08 1.0853e-05 
-0.179805 0.166513 0.15536 0.0344568 0.0485823 0.136619 959 494 0 -0.00603465 -0.00595529 0.0117955 1.19892e-07 1.91271e-05 
-0.179805 0.166513 0.15536 -0.109954 0.0696888 0.0959766 959 373 0 0.00608397 0.0126138 -0.0101556 1.40626e-07 2.24443e-05 
-0.179805 0.166513 0.15536 0.154649 0.139426 0.311172 959 909 0 7.90094e-05 -0.00660969 -0.00708781 8.28298e-08 1.32046e-05 
-0.0470348 -0.0208056 0.0417261 -0.0669373 0.0170509 0.038161 1539 1366 0 0.00251119 0.00405318 -0.00490565 6.29154e-08 1.00259e-05 
-0.0401245 0.0450839 -0.103618 0.0172755 0.0482671 -0.0135876 651 170 0 -0.000779607 0.000302786 -0.00302636 5.11145e-08 8.14341e-06 
0.0527488 -0.0113175 0.0410954 0.0746021 -0.00935599 0.0843485 1046 1009 0 -0.00174777 -0.000333351 -0.000988683 4.49506e-08 7.16052e-06 
0.0527488 -0.0113175 0.0410954 0.00423362 -0.0441108 0.0440265 1046 961 0 -0.000944654 -0.00122528 -0.00306454 4.04432e-08 6.44193e-06 
0.0746021 -0.00935599 0.0843485 -0.0226445 -0.0703669 0.0670254 1009 1895 0 2.75208e-05 -0.00028433 6.01447e-05 9.23936e-09 1.47076e-06 
0.0746021 -0.00935599 0.0843485 0.0565933 0.0992683 0.101352 1009 2257 0 -0.00300037 -0.0014415 -0.000233736 4.69596e-08 7.48085e-06 
0.086007 -0.0105772 0.0918549 0.0267018 -0.00457527 0.0552369 2309 1877 0 0.000893847 -0.00235183 -0.00216852 4.63252e-08 7.37969e-06 
-0.0588343 0.0283497 0.0601472 -0.0226445 -0.0703669 0.0670254 1466 1895 0 -0.00124879 -0.00050094 -8.84744e-05 2.80925e-08 4.47357e-06 
-0.0588343 0.0283497 0.0601472 0.00099205 0.0521385 0.0456992 1466 1715 0 0.000779631 -0.000225097 -0.00131753 1.98653e-08 3.16291e-06 
-0.0226445 -0.0703669 0.0670254 0.027891 -0.00219478 0.0662331 1895 2021 0 -0.000352989 -0.000370689 -0.000160447 2.26525e-08 3.60689e-06 
0.0267018 -0.00457527 0.0552369 0.0444412 -0.0224651 0.0863133 1877 818 0 -0.000934451 1.79103e-05 0.0015671 2.73605e-08 4.35693e-06 
0.0267018 -0.00457527 0.0552369 0.0565933 0.0992683 0.101352 1877 2257 0 0.00136281 0.00231376 -0.0062476 5.832e-08 9.29271e-06 
0.378724 0.126552 -0.197189 -0.165715 -0.0242994 -0.0263307 906 1859 0 -0.000656352 0.000533951 0.000415451 7.29807e-08 1.16321e-05 
-0.0561967 0.282662 -0.281009 -0.165715 -0.0242994 -0.0263307 1099 1859 0 -0.00743481 0.00265394 0.00241603 7.49873e-08 1.19524e-05 
-0.0561967 0.282662 -0.281009 -0.23355 0.167467 -0.157205 1099 1076 0 -0.00135807 -0.000192281 0.00136441 8.60378e-09 1.36957e-06 
-0.109954 0.0696888 0.0959766 -0.165715 -0.0242994 -0.0263307 373 1859 0 0.00262783 0.0152266 -0.00442199 1.27978e-07 2.04204e-05 
-0.0669373 0.0170509 0.038161 -0.23355 0.167467 -0.157205 1366 1076 0 -0.000557252 0.0153337 -0.00443749 8.94496e-08 1.42618e-05 
-0.153324 0.25968 0.12349 0.154649 0.139426 0.311172 626 909 0 -0.00706649 -0.00263334 -0.00233835 1.2986e-07 2.07216e-05 
-0.0768063 0.0274039 0.0711891 -0.071748 -0.0139151 0.0614747 1960 2290 0 0.000458441 -0.000956216 0.000562512 3.77007e-09 6.0007e-07 
-0.0768063 0.0274039 0.0711891 -0.0559169 -0.0374661 0.0564809 1960 2315 0 0.000316195 0.00091419 -0.00219332 4.38401e-08 6.98346e-06 
-0.071748 -0.0139151 0.0614747 -0.0461658 -0.00863796 0.0825 2290 685 0 0.00356863 0.000637915 -0.00184571 4.69642e-08 7.48158e-06 
-0.071748 -0.0139151 0.0614747 0.0451272 0.0739797 0.0478211 2290 15 0 -0.000250561 0.00027546 -0.000602948 1.44194e-08 2.29559e-06 
0.0172755 0.0482671 -0.0135876 -0.00595109 -0.00325115 0.0229878 170 2113 0 -0.000740305 -0.00133159 -0.00358777 5.8758e-08 9.36259e-06 
-0.0184003 0.0512537 0.13443 -0.0461658 -0.00863796 0.0825 572 685 0 -0.000221272 0.000491095 -0.00166424 2.76211e-08 4.39846e-06 
0.00423362 -0.0441108 0.0440265 0.0134178 -0.00134896 0.0246659 961 747 0 -0.000618232 -0.00355829 -0.00551391 7.28161e-08 1.16059e-05 
0.0565933 0.0992683 0.101352 0.0627173 0.0830068 0.0528199 2257 338 0 -0.000478291 -0.00116673 0.000295363 2.43322e-08 3.87446e-06 
0.0565933 0.0992683 0.101352 0.209895 0.19534 0.307561 2257 981 0 -0.0115345 0.0166079 0.00882501 1.50158e-07 2.39702e-05 
0.0565933 0.0992683 0.101352 0.027891 -0.00219478 0.0662331 2257 2021 0 0.00213839 -0.00398968 -0.000348507 3.65825e-08 5.82653e-06 
0.0565933 0.0992683 0.101352 0.0589549 0.0539916 0.117366 2257 2311 0 -5.79473e-05 -9.19661e-06 -7.72627e-05 2.06792e-08 3.29255e-06 
0.0565933 0.0992683 0.101352 0.071968 0.0951846 0.0753552 2257 952 0 0.00686559 -0.0100797 -0.0152974 1.34044e-07 2.1391e-05 
0.120421 0.0341904 -0.207959 -0.265678 -0.169478 -0.197968 1966 627 0 0.027853 -0.0331036 -0.00633233 2.73869e-07 4.38277e-05 
-0.0178793 -0.0748841 0.0803253 -0.0985783 -0.0112384 0.0181056 72 1136 0 -0.000347557 -0.000140262 -0.000117495 2.22051e-09 3.53422e-07 
-0.0985783 -0.0112384 0.0181056 -0.126623 0.107889 0.0853653 1136 1041 0 -0.00365109 0.00306174 -0.00416466 5.44692e-08 8.67846e-06 
-0.0559169 -0.0374661 0.0564809 -0.0242769 0.0341058 0.100461 2315 1432 0 -0.00075074 0.00519939 -0.00141628 5.08456e-08 8.10053e-06 
-0.0461658 -0.00863796 0.0825 -0.0651569 0.00766498 0.0984228 685 869 0 0.00195978 0.00042212 -0.00286645 5.05999e-08 8.06134e-06 
-0.0461658 -0.00863796 0.0825 -0.0212336 0.0646083 0.0752601 685 2299 0 0.000633781 -1.93794e-05 -0.00122991 2.71791e-08 4.32803e-06 
-0.0189488 0.0172532 0.148197 0.0382676 0.0432047 0.0899655 985 760 0 0.00447406 0.00272217 0.000196826 1.43481e-08 2.28423e-06 
0.0334176 0.0792717 0.0348323 0.0382676 0.0432047 0.0899655 1894 760 0 -0.000432542 -0.000821355 -0.000168694 3.31172e-08 5.27425e-06 
-0.00595109 -0.00325115 0.0229878 -0.00482862 -0.0119389 -0.065419 2113 2212 0 -0.000120465 -0.0095969 0.00516709 1.048e-07 1.67144e-05 
-0.00595109 -0.00325115 0.0229878 0.00576468 0.015459 0.0352841 2113 1511 0 -0.00333943 -0.000377659 -0.00155667 5.26117e-08 8.38219e-06 
-0.00595109 -0.00325115 0.0229878 -0.0625895 0.0321191 0.0492004 2113 713 0 0.000377987 0.00513737 -0.00854765 9.69484e-08 1.54597e-05 
-0.00482862 -0.0119389 -0.065419 0.00099205 0.0521385 0.0456992 2212 1715 0 -0.00177172 0.000173064 0.000739489 3.31043e-08 5.27218e-06 
0.00099205 0.0521385 0.0456992 0.0170546 0.0133734 0.0368108 1715 1794 0 -0.000141119 0.000154913 -0.000674075 9.37566e-09 1.49246e-06 
0.027891 -0.00219478 0.0662331 0.071968 0.0951846 0.0753552 2021 952 0 0.000252764 0.00213749 0.000689978 1.68082e-09 2.6752e-07 
0.288476 0.123253 -0.327428 0.263688 -0.204403 -0.00783796 1350 1230 0 6.4224e-05 -0.000188937 -0.000118431 2.10569e-08 3.35271e-06 
0.288476 0.123253 -0.327428 0.18017 0.158673 -0.168467 1350 1486 0 2.55658e-05 0.000197385 0.000137053 1.72624e-08 2.74834e-06 