ITEM: TIMESTEP
18900000
ITEM: NUMBER OF ENTRIES
1050
ITEM: BOX BOUNDS ff ff ff
-0.01 0.45
-0.15 0.15
-0.08 0.1
ITEM: ENTRIES c_ppc[1] c_ppc[2] c_ppc[3] c_ppc[4] c_ppc[5] c_ppc[6] c_ppc[7] c_ppc[8] c_ppc[9] c_ppc[10] c_ppc[11] c_ppc[12] c_ppc[13] c_ppc[14] 
6.13007e-16 6.8446e-16 6.51544e-14 3.38761e-16 -4.98607e-16 6.52021e-14 665 23 0 -0.319565 -1.35429 -0.225719 2.37287e-06 0.000397394 
0.612413 2.39317 -1.21053 -0.339655 1.23181 0.329048 517 998 0 0.0344618 0.0544367 -0.0164118 7.02647e-07 0.000113438 
0.612413 2.39317 -1.21053 0.531259 0.471316 0.269498 517 1535 0 -0.101235 -0.114531 -0.0376671 5.34006e-07 8.59122e-05 
-0.339655 1.23181 0.329048 -0.149514 -0.0539621 0.0128515 998 1002 0 0.0420784 -0.0266583 -0.0251983 1.90367e-07 3.04134e-05 
0.00250781 -0.196988 -0.0188218 0.00344129 -0.165194 0.0116622 1268 380 0 -2.19049e-05 1.63084e-06 -1.06983e-05 3.30758e-10 5.26421e-08 
0.128285 0.0371867 0.143328 0.0820269 0.189646 -0.143605 1681 814 0 0.00144114 0.00194375 -0.000124002 4.50242e-09 7.16647e-07 
0.397517 0.121597 -0.2303 0.474872 0.433181 -0.162969 1082 2108 0 0.000286313 0.00129053 0.00357241 4.02383e-08 6.40925e-06 
-0.262592 0.113678 -0.041333 -0.1098 0.249014 0.0134968 2318 1445 0 -0.000635027 5.2954e-05 0.00184632 4.39864e-08 7.00679e-06 
-0.262592 0.113678 -0.041333 0.038323 0.0966915 0.0590915 2318 29 0 0.00138245 -0.00207116 -0.0110555 1.08999e-07 1.73856e-05 
0.355703 0.153792 -0.064004 0.611871 -0.167213 -0.17732 1335 2115 0 -0.00120074 -0.00279071 -0.000571859 8.28372e-09 1.31861e-06 
-0.0942031 0.0644966 0.0426278 0.165053 0.00541687 -0.0393038 1901 520 0 0.000572322 0.0011177 0.000427339 1.73378e-08 2.76035e-06 
0.165053 0.00541687 -0.0393038 0.125726 0.0641964 -0.0453248 520 241 0 -1.60843e-05 -0.00180401 -0.000848046 4.99509e-08 7.95784e-06 
0.125726 0.0641964 -0.0453248 0.0416542 0.0693969 0.060906 241 210 0 -0.00150271 -0.00510986 -0.00179978 7.38061e-08 1.17639e-05 
0.125726 0.0641964 -0.0453248 0.19118 0.00850536 -0.019521 241 826 0 0.000409706 0.000438117 -0.00180951 4.22383e-08 6.7281e-06 
0.0461661 0.108511 -0.0356352 0.0646762 0.0462303 0.0118231 1216 1495 0 0.000136649 -0.00228333 0.00113954 1.32171e-08 2.10412e-06 
0.0562611 0.0747363 0.727481 0.0660763 0.131701 0.524991 20 718 0 -0.0193275 -0.00881212 0.0057119 9.76732e-08 1.55755e-05 
0.019565 -0.0759445 0.130556 -0.0114866 -0.0530479 0.085497 1398 371 0 -2.3612e-05 6.68474e-05 -6.65043e-05 3.47073e-09 5.52422e-07 
0.0405524 0.0390101 -0.106537 0.170607 0.076303 -0.034182 708 2308 0 0.00160635 -0.0024171 0.00331558 3.05704e-08 4.8684e-06 
0.170607 0.076303 -0.034182 0.19118 0.00850536 -0.019521 2308 826 0 -0.000549244 -0.00110281 0.00041323 7.91109e-09 1.25929e-06 
0.170607 0.076303 -0.034182 0.0219537 -0.0465659 0.0782861 2308 1308 0 0.00191856 -0.00538647 -0.00162292 4.73174e-08 7.53791e-06 
0.0219537 -0.0465659 0.0782861 0.022865 -0.00848757 0.0133059 1308 1913 0 0.00327062 3.46763e-05 -0.000951719 2.97756e-08 4.74174e-06 
0.0219537 -0.0465659 0.0782861 0.0484299 -0.0321384 0.150228 1308 1654 0 -2.01819e-05 -0.000364683 0.000628073 3.1801e-08 5.0645e-06 
0.0034975 -0.0396629 0.0246328 0.0109522 -0.051226 0.0583529 1140 977 0 1.23231e-05 -1.78347e-05 2.29795e-06 2.2751e-09 3.6211e-07 
0.0660763 0.131701 0.524991 -0.615227 -1.74816 -0.716032 718 361 0 -0.109808 -0.0980105 -0.0145152 2.32854e-07 3.72331e-05 
0.19118 0.00850536 -0.019521 0.0599629 -0.00442205 -0.014873 826 1418 0 -0.00030233 1.02957e-05 -0.00060857 5.44209e-09 8.66229e-07 
0.518509 -0.0366661 -0.73056 0.301019 0.117328 -0.0624814 2144 2305 0 1.71282e-05 -0.00126673 -0.00114339 1.03873e-07 1.65662e-05 
0.301019 0.117328 -0.0624814 0.339998 0.146941 -0.186357 2305 1645 0 -0.00263158 -0.00382983 0.00446764 1.06156e-07 1.69312e-05 
0.301019 0.117328 -0.0624814 0.427598 0.179256 0.27079 2305 1465 0 -0.0112995 -0.00445433 0.000721665 1.37109e-07 2.18814e-05 
-0.0611921 0.0430229 0.100472 -0.0503153 0.205559 0.0556864 2093 1049 0 0.000203523 -0.00865211 -0.00793105 9.75924e-08 1.55626e-05 
0.0624731 0.0197706 -0.0113394 0.0611338 0.00213796 0.0177015 1956 1973 0 -0.00220194 -0.00187996 0.00118148 3.65487e-08 5.82115e-06 
0.0624731 0.0197706 -0.0113394 0.0813498 -0.0173562 -0.042001 1956 1056 0 -0.00207622 0.00353598 -0.00108657 5.35485e-08 8.5316e-06 
0.0624731 0.0197706 -0.0113394 0.0654176 -0.00679041 0.028613 1956 1943 0 0.00267739 -0.000461605 -0.00138556 5.02926e-08 8.01233e-06 
0.0611338 0.00213796 0.0177015 0.113829 0.104712 0.00648039 1973 1554 0 0.00128443 -0.00246292 0.00256187 1.45125e-08 2.3104e-06 
0.0611338 0.00213796 0.0177015 0.0418814 -0.0227647 0.0261196 1973 1272 0 -0.000270737 -6.4315e-06 -0.00107818 1.42253e-08 2.26466e-06 
0.0147678 -0.0371461 0.115175 0.0422497 0.0186407 0.140012 1531 294 0 -0.00122174 0.000132591 0.00627219 6.39226e-08 1.01866e-05 
0.0147678 -0.0371461 0.115175 0.00338297 -0.0548802 0.0883972 1531 5 0 0.00198772 0.000467425 -0.00452629 5.17085e-08 8.23814e-06 
0.0748077 0.0117546 0.0475373 -0.0373267 0.0305673 0.0819563 647 1765 0 0.00035682 0.000247248 -0.00101062 2.42448e-08 3.86054e-06 
0.100885 0.0114256 0.00664419 0.0117951 -0.00467228 -0.0543585 2119 1665 0 0.000823298 -0.00209584 0.00075758 2.82721e-08 4.50219e-06 
0.100885 0.0114256 0.00664419 -0.0373267 0.0305673 0.0819563 2119 1765 0 -8.63109e-05 0.00353324 -0.00273518 5.92896e-08 9.44739e-06 
0.0654176 -0.00679041 0.028613 0.0680517 -0.0172069 0.0255386 1943 168 0 0.00143874 -0.00044472 0.000458203 2.17284e-08 3.45969e-06 
0.0654176 -0.00679041 0.028613 0.195907 0.0227025 0.111537 1943 1582 0 -0.000413953 0.000415123 -0.00127464 2.98074e-08 4.74681e-06 
0.157664 -0.0272368 0.0803356 0.0566287 -0.0478963 0.144588 1122 1756 0 -0.000438287 2.26451e-05 -0.0002579 1.01588e-08 1.61715e-06 
-0.0554276 0.405118 -0.409181 -0.00235282 0.0249763 -0.0626001 77 1804 0 0.000234845 -0.00132219 -0.000820206 4.18331e-08 6.66349e-06 
0.26278 0.0466617 -0.0453521 0.0177376 -0.0344055 0.0137256 2090 1139 0 -0.000642209 -0.00479573 -0.00148097 5.27999e-08 8.41221e-06 
-0.0373267 0.0305673 0.0819563 -0.0609326 0.0778897 0.066585 1765 1194 0 0.00205401 0.00381348 -0.00966021 8.74466e-08 1.39419e-05 
-0.0503153 0.205559 0.0556864 0.0717831 0.134349 0.0801212 1049 804 0 0.00592711 -0.0270917 -0.000451574 1.55962e-07 2.48996e-05 
-0.0503153 0.205559 0.0556864 0.16902 0.141111 0.0558122 1049 1568 0 -5.16092e-06 -4.60602e-05 2.59017e-05 4.53733e-08 7.22791e-06 
0.0574591 -0.0536222 -0.016539 0.0177376 -0.0344055 0.0137256 852 1139 0 -0.000252826 0.00220439 -0.000450137 3.11296e-08 4.9575e-06 
-0.0609326 0.0778897 0.066585 -0.00235282 0.0249763 -0.0626001 1194 1804 0 0.0029078 0.0029286 0.0066282 4.34938e-08 6.92826e-06 
-0.0609326 0.0778897 0.066585 0.0811395 0.232156 0.0959307 1194 1363 0 -0.00111979 0.00485602 -0.0144808 1.00292e-07 1.5994e-05 
-0.0609326 0.0778897 0.066585 0.0101153 0.15845 0.0757423 1194 235 0 0.00312631 -0.00480434 -0.0054775 9.56033e-08 1.52448e-05 
0.16902 0.141111 0.0558122 0.215998 0.0471885 0.00419219 1568 2084 0 0.000302963 -0.000218188 0.000339528 3.07755e-08 4.90107e-06 
0.16902 0.141111 0.0558122 0.0802429 0.111125 0.149795 1568 1885 0 -0.00301164 -0.00732131 -0.0023807 7.5202e-08 1.19867e-05 
0.0177376 -0.0344055 0.0137256 0.078237 -0.151643 0.013273 1139 1700 0 -0.000778681 -0.00236424 -0.000675739 2.1485e-08 3.4209e-06 
0.195907 0.0227025 0.111537 0.155873 0.00405796 0.0896887 1582 962 0 0.00010183 -0.000927166 0.00076221 1.5021e-08 2.39138e-06 
0.195907 0.0227025 0.111537 0.0802429 0.111125 0.149795 1582 1885 0 0.000700498 0.00436379 -0.00251713 5.15042e-08 8.20557e-06 
0.0566287 -0.0478963 0.144588 0.0254192 -0.0142276 0.0690939 1756 937 0 -0.000582712 -0.000113728 0.00010252 1.61927e-08 2.57798e-06 
-0.230964 0.0923527 -0.379292 -0.0905557 -0.324591 -0.337732 531 847 0 -0.0228419 -0.00324002 0.00188707 1.4598e-07 2.33014e-05 
0.245586 -0.0534138 -0.273536 0.215998 0.0471885 0.00419219 791 2084 0 -6.52865e-05 -0.000270997 7.69108e-05 2.60612e-08 4.14992e-06 
0.161639 0.107304 0.125875 -0.0455888 -0.0295852 -0.0865378 938 1125 0 -0.00657272 0.00229537 -0.00122175 4.62142e-08 7.362e-06 
0.0101153 0.15845 0.0757423 0.0294 0.150168 0.0764868 235 415 0 -0.00153179 -0.00547503 -0.00227022 6.31069e-08 1.00564e-05 
0.0101153 0.15845 0.0757423 0.0238151 0.143587 0.0899069 235 1739 0 -5.38563e-05 -0.000323289 0.000182598 5.61974e-09 8.9451e-07 
0.215055 -0.0754976 0.0880278 0.167626 -0.0198859 -0.0341445 2080 795 0 3.04773e-05 -0.000276556 -6.47748e-05 1.91494e-08 3.04889e-06 
0.00700565 0.00140303 -0.436465 0.221208 0.358075 -0.186489 1382 147 0 0.0150268 -0.00833991 -0.00250096 1.85569e-07 2.96441e-05 
0.0811395 0.232156 0.0959307 0.159233 0.0412364 -0.0485224 1363 430 0 -0.00571086 0.00272779 -0.00628614 8.91138e-08 1.42081e-05 
-0.128135 0.170544 0.152008 0.076796 0.183096 0.128453 1862 1296 0 -0.000341717 -0.0115323 -0.0133681 1.394e-07 2.2248e-05 
0.26838 0.0423121 0.27016 0.312908 -0.0807112 0.243722 987 813 0 -0.000900003 -0.000813945 -0.00160367 2.91141e-08 4.63634e-06 
0.0294 0.150168 0.0764868 0.0186481 0.000651086 0.178574 415 793 0 -0.00189968 -0.00290376 -0.00119724 3.43448e-08 5.46988e-06 
0.0236616 0.160104 0.22031 0.144498 0.07878 0.0859348 606 1666 0 -2.57847e-05 -0.000382847 6.02252e-05 2.12178e-08 3.37835e-06 
-0.101598 -0.064778 0.0414266 0.040708 0.0621903 -0.0180093 225 2050 0 0.00120298 -0.00107881 -6.34094e-05 2.81795e-08 4.48742e-06 
0.040708 0.0621903 -0.0180093 0.0859765 0.106171 0.057042 2050 1158 0 0.000705238 0.000223754 2.46859e-05 2.26744e-08 3.61037e-06 
0.169585 -0.124986 0.179771 0.135234 -0.130302 0.164678 1874 2192 0 0.00266203 0.00325086 -0.00739786 8.34714e-08 1.3307e-05 
0.0238151 0.143587 0.0899069 0.0568468 0.166215 0.110143 1739 460 0 -3.19214e-05 -8.13398e-05 0.000243071 1.05644e-08 1.68173e-06 
0.200675 0.0347941 0.109783 0.144498 0.07878 0.0859348 1141 1666 0 6.39138e-05 0.000697521 1.41903e-05 8.27001e-09 1.31643e-06 
0.312908 -0.0807112 0.243722 0.105878 -0.127843 0.197877 813 1964 0 -3.10604e-06 6.97109e-06 -0.00174106 2.89613e-08 4.61199e-06 
0.144498 0.07878 0.0859348 0.149019 0.0375943 0.154739 1666 807 0 3.67952e-05 0.000515176 0.000310329 1.35893e-08 2.1634e-06 
0.0114685 0.210642 0.116436 0.0410414 0.151442 0.176033 2046 1204 0 0.000280201 -0.000630737 -0.0025792 3.81155e-08 6.07088e-06 
0.129599 0.095283 0.0825432 0.135234 -0.130302 0.164678 2019 2192 0 -0.00144587 -0.00100603 0.00346402 1.59235e-08 2.53511e-06 
0.0775443 0.177144 0.178481 0.076796 0.183096 0.128453 1724 1296 0 -0.00221754 0.00290919 0.00240405 7.75845e-09 1.23499e-06 
0.135234 -0.130302 0.164678 0.0507453 -0.124361 0.130338 2192 1061 0 -0.00370301 0.00154449 -0.00182269 1.42538e-08 2.26921e-06 
0.076796 0.183096 0.128453 -0.0692097 0.108088 0.10944 1296 1264 0 0.00259637 -0.0103031 -0.00773493 1.02436e-07 1.63366e-05 
0.076796 0.183096 0.128453 0.12911 0.0083745 0.143224 1296 1933 0 0.00121315 -0.00161266 -0.00319932 2.65805e-09 4.23064e-07 
-0.0692097 0.108088 0.10944 -0.00701797 0.0262006 0.106968 1264 1864 0 0.00394664 -0.00435534 -0.00513164 5.26633e-08 8.39042e-06 
0.149019 0.0375943 0.154739 0.0400205 0.00755883 0.192511 807 489 0 0.000174789 -1.74986e-05 0.000306066 9.5815e-09 1.52523e-06 
0.00937001 0.131241 0.0953753 0.00974567 0.0634736 0.20199 585 136 0 4.55332e-05 -0.00167218 -0.000933011 4.41136e-08 7.02707e-06 
0.0410414 0.151442 0.176033 0.0010653 0.0754531 0.23672 1204 2059 0 0.00256877 -0.000429837 0.0008569 4.0029e-08 6.3759e-06 
0.0410414 0.151442 0.176033 -0.0221543 0.0367091 0.0818896 1204 2164 0 0.00432017 0.00166598 -0.00453644 4.61107e-08 7.34548e-06 
0.105878 -0.127843 0.197877 -0.0210141 0.0433023 0.115412 1964 295 0 0.000313342 6.58493e-05 -0.00235412 3.50778e-08 5.58671e-06 
-0.00701797 0.0262006 0.106968 0.0158604 0.00819308 0.115441 1864 727 0 -0.000434828 -0.000585137 -0.00204671 2.21317e-08 3.52393e-06 
-0.0250596 -0.0620217 0.17664 -0.0221543 0.0367091 0.0818896 562 2164 0 -0.00343909 -0.00419863 -0.00139941 5.84094e-08 9.30697e-06 
0.00974567 0.0634736 0.20199 -0.0221543 0.0367091 0.0818896 136 2164 0 -0.000370754 -0.00129363 -0.0024266 5.55008e-10 8.83333e-08 
0.00974567 0.0634736 0.20199 0.0433963 0.131086 -0.0893229 136 483 0 0.000359036 -0.000138318 -0.000179785 1.65993e-09 2.64195e-07 
0.00974567 0.0634736 0.20199 0.0919023 0.0161977 0.10411 136 1539 0 -0.000425328 -0.00572739 -0.00235718 5.58261e-08 8.89489e-06 
0.0507453 -0.124361 0.130338 0.0659624 -0.0970971 0.122447 1061 494 0 -0.000846489 0.000387297 6.11176e-05 2.4898e-08 3.9646e-06 
0.0136062 -0.00216062 0.126737 0.0158604 0.00819308 0.115441 2006 727 0 0.000905237 -0.00168301 2.66251e-05 2.92835e-08 4.66333e-06 
0.0158604 0.00819308 0.115441 0.0599651 -0.0344848 0.119124 727 572 0 -0.000778478 0.000426591 -0.0022368 4.37899e-08 6.97546e-06 
0.0050562 0.0683904 0.0935659 -0.0210141 0.0433023 0.115412 1160 295 0 -0.000373483 0.00049022 -0.000320933 2.0665e-08 3.29028e-06 
0.0400205 0.00755883 0.192511 0.10427 0.0112705 0.153172 489 1877 0 0.00018439 6.82051e-05 9.58017e-05 5.70915e-09 9.08742e-07 
0.190533 -0.0117278 0.154849 0.272214 -0.225326 -0.214509 1478 1947 0 0.000736058 -0.000103942 9.1167e-05 3.11223e-08 4.95633e-06 
0.272214 -0.225326 -0.214509 0.230336 0.242091 -0.499526 1947 1656 0 -0.0153781 -0.00502889 -0.00536532 1.47188e-07 2.34947e-05 
-0.0221543 0.0367091 0.0818896 -0.0307642 0.0733152 0.0706132 2164 2204 0 5.20395e-05 -0.00223865 -0.00227109 4.63343e-08 7.38114e-06 
-0.0221543 0.0367091 0.0818896 -0.0434159 -0.029792 0.125853 2164 1076 0 -0.000193595 -0.00118338 -0.00134567 3.40249e-08 5.4189e-06 
0.0433963 0.131086 -0.0893229 -0.0215104 0.00828598 0.0649604 483 626 0 -0.00216909 -0.00419636 -0.00543058 7.82466e-08 1.24728e-05 
-0.0307642 0.0733152 0.0706132 -0.0122477 -0.00457857 0.159031 2204 226 0 0.00157106 -0.00271392 -0.00123396 3.77355e-08 6.0103e-06 
0.00711441 0.0429852 0.16925 -0.0215104 0.00828598 0.0649604 1960 626 0 -0.000421622 0.00783734 -0.000593507 8.53217e-08 1.36025e-05 
0.00711441 0.0429852 0.16925 0.0624159 0.0588888 0.145193 1960 1009 0 -0.00133897 -0.00623069 -0.000471519 7.66536e-08 1.22185e-05 
-0.0210141 0.0433023 0.115412 0.0279309 0.0130935 0.118064 295 909 0 -0.000545064 0.000109365 -0.002963 4.62905e-08 7.37415e-06 
0.0142913 -0.000815437 0.133319 0.0529039 -0.089957 0.164987 1046 961 0 -1.39557e-06 1.16896e-05 1.28964e-05 2.90871e-09 4.62962e-07 
0.0173795 0.0725145 0.15018 0.0624159 0.0588888 0.145193 1895 1009 0 4.5852e-05 -3.38059e-05 -1.48971e-05 2.33414e-08 3.71662e-06 
0.10427 0.0112705 0.153172 0.0624159 0.0588888 0.145193 1877 1009 0 0.00149143 0.00266513 -0.00294747 4.47122e-08 7.1225e-06 
-0.255791 -0.157816 0.0719221 0.0178856 -0.00789997 -0.022889 995 7 0 0.000400296 -0.000513656 -0.000154388 2.96979e-08 4.72937e-06 
0.0178856 -0.00789997 -0.022889 -0.0434159 -0.029792 0.125853 7 1076 0 -0.000364097 -0.000537482 -0.000649949 2.25191e-08 3.58563e-06 
-0.0434159 -0.029792 0.125853 0.0346865 0.0322687 0.0581846 1076 2134 0 -0.000883626 -0.000407768 -0.00178695 2.97178e-08 4.73254e-06 
-0.0215104 0.00828598 0.0649604 -0.0188239 -0.0296815 0.063935 626 1136 0 -0.0035337 0.00135734 -0.00549834 7.35485e-08 1.17228e-05 
0.0279309 0.0130935 0.118064 -0.0188239 -0.0296815 0.063935 909 1136 0 -0.00117758 0.000605807 -0.000428776 1.77388e-08 2.82422e-06 
0.0279309 0.0130935 0.118064 0.0461917 -0.0140474 0.119467 909 985 0 0.000277179 0.000509622 -0.00230738 3.18938e-08 5.07928e-06 
0.042891 -0.0330695 0.0894554 0.0529039 -0.089957 0.164987 2290 961 0 -5.41144e-05 -0.00232625 0.000684011 1.72641e-08 2.74861e-06 
0.0624159 0.0588888 0.145193 0.0423557 -0.0247946 0.168839 1009 2257 0 -0.00154917 -0.000115006 -0.000528501 2.55016e-08 4.06077e-06 
0.0624159 0.0588888 0.145193 0.0525381 0.0591868 0.147433 1009 2021 0 0.000951782 -0.00241641 -0.00449163 5.97601e-08 9.52245e-06 
0.0423557 -0.0247946 0.168839 0.0364977 -0.0236662 0.108765 2257 338 0 -0.000868246 -0.000382748 -0.000393101 2.17787e-08 3.46769e-06 
0.0423557 -0.0247946 0.168839 0.0512118 -0.00945833 0.129871 2257 952 0 -0.000182594 0.000461079 -0.00102069 2.61812e-09 4.16708e-07 
-0.39754 -0.131239 0.205578 -0.0350203 -0.0473188 0.125212 132 42 0 0.00179191 -0.0029937 -0.000482783 5.39591e-08 8.59709e-06 
0.10989 -0.0517943 0.0633739 -0.0244701 -0.0917237 0.0773489 1486 815 0 -0.00781448 -0.000251076 -0.00726853 2.18187e-08 3.47406e-06 
0.0346865 0.0322687 0.0581846 0.00983444 -0.110008 0.0734924 2134 1024 0 0.000614665 0.000187699 -0.00123756 2.39805e-08 3.81844e-06 
-0.0688675 -0.147899 0.194194 -0.0557211 -0.0437682 0.0985684 514 175 0 -0.00540202 0.000831981 -0.00150785 5.68337e-08 9.05562e-06 
-0.0188239 -0.0296815 0.063935 0.136665 0.0972348 0.125491 1136 1041 0 -0.00246532 0.00567987 -0.00276997 7.47784e-08 1.19191e-05 
-0.0188239 -0.0296815 0.063935 -0.0261347 -0.00898929 0.0720448 1136 1432 0 -8.97828e-05 0.00228205 0.000213702 8.64897e-09 1.37676e-06 
-0.0188239 -0.0296815 0.063935 0.0131339 -0.0596976 0.0699543 1136 1324 0 -0.000831356 -0.00218439 -0.00269335 4.62334e-08 7.36506e-06 
0.0655151 -0.00573717 0.0505673 0.0461917 -0.0140474 0.119467 1894 985 0 -0.00152007 0.00144755 -0.000907425 4.30841e-08 6.86294e-06 
0.0411334 -0.0161466 0.0826083 0.036322 -0.0443537 0.0765716 2113 713 0 0.000255418 0.00020062 -0.000810633 1.88956e-08 3.00845e-06 
0.067715 -0.0374826 0.0767229 0.0526155 -0.0279371 0.0883997 1511 15 0 -0.00167455 0.00168834 -0.000336438 3.07033e-08 4.88958e-06 
0.0525381 0.0591868 0.147433 0.0422497 0.0186407 0.140012 2021 294 0 0.00018427 -0.000873767 -0.00589132 6.22114e-08 9.91354e-06 
-0.0244701 -0.0917237 0.0773489 0.00983444 -0.110008 0.0734924 815 1024 0 -0.00149825 -0.00239924 -0.0031793 5.43069e-08 8.65257e-06 
-0.0350203 -0.0473188 0.125212 -0.0261347 -0.00898929 0.0720448 42 1432 0 -0.000602985 -0.0011608 -0.000390342 3.01055e-08 4.79431e-06 
0.136665 0.0972348 0.125491 0.130537 0.0460414 0.107403 1041 840 0 -0.000758476 0.00584829 -0.00452406 8.56925e-08 1.36617e-05 
-0.0107343 -0.104728 0.0692835 0.0154454 -0.117308 0.049212 1602 1293 0 0.000609073 0.000887112 -0.000804353 2.03399e-08 3.2385e-06 
-0.0261347 -0.00898929 0.0720448 -0.0557211 -0.0437682 0.0985684 1432 175 0 0.00409465 -7.96951e-05 0.00229757 5.52165e-08 8.79766e-06 
-0.0261347 -0.00898929 0.0720448 0.0131339 -0.0596976 0.0699543 1432 1324 0 -0.00102486 3.56957e-05 -0.000115988 2.95765e-08 4.71002e-06 
-0.0261347 -0.00898929 0.0720448 -0.0262132 -0.0221226 0.0903943 1432 609 0 -0.00178871 0.000207657 -0.00216386 3.73265e-08 5.94512e-06 
0.0461917 -0.0140474 0.119467 0.0131339 -0.0596976 0.0699543 985 1324 0 -0.000202882 0.0025968 -0.00360107 5.59852e-08 8.92026e-06 
0.0526155 -0.0279371 0.0883997 0.0474318 -0.0343828 0.084143 15 2291 0 3.92432e-05 -5.4204e-05 -5.58025e-05 1.36443e-09 2.17161e-07 
0.036322 -0.0443537 0.0765716 0.0178668 -0.0435706 0.0803275 713 1083 0 0.00111399 -6.8751e-06 -0.000540275 1.57462e-08 2.50687e-06 
-0.0191719 -0.172864 0.0292517 -0.0300795 -0.164208 0.0333322 2287 833 0 -0.000782781 -2.50578e-05 -0.00413849 1.95883e-08 3.11879e-06 
0.130537 0.0460414 0.107403 0.0883656 -0.177412 0.0108517 840 298 0 -0.00150868 0.0020782 -0.00133705 6.1776e-08 9.84406e-06 
0.00983444 -0.110008 0.0734924 0.00364069 -0.0457711 0.0917482 1024 189 0 -0.00292985 0.000351552 0.000177025 3.60444e-08 5.74076e-06 
0.00983444 -0.110008 0.0734924 0.0230082 -0.095959 0.0909909 1024 846 0 0.00514155 -0.00260126 -0.00613786 8.44362e-08 1.34611e-05 
0.0261096 -0.09166 0.158798 -0.0184932 -0.01067 0.113499 1288 736 0 0.000497071 -0.00169332 -0.00195574 4.72007e-08 7.51929e-06 
0.0131339 -0.0596976 0.0699543 -0.000252935 -0.0597723 0.10691 1324 924 0 0.000567987 -0.00159027 -0.00521707 6.84891e-08 1.09153e-05 
0.0474318 -0.0343828 0.084143 -0.0114866 -0.0530479 0.085497 2291 371 0 -3.12458e-05 3.89543e-05 -0.000228163 5.64762e-09 8.98948e-07 
0.0207853 -0.012837 0.0965728 -0.0262132 -0.0221226 0.0903943 760 609 0 -9.28993e-05 0.000787872 -0.000387219 2.08613e-08 3.32156e-06 
0.0313649 -0.0663472 0.0976559 -0.000252935 -0.0597723 0.10691 1426 924 0 -1.27828e-05 0.00044303 -0.000631932 1.29697e-08 2.06473e-06 
0.0318001 -0.0469048 0.0706006 0.0278569 -0.0469252 0.0734132 2256 384 0 -0.000154899 0.000104736 -0.000348796 1.02908e-08 1.63816e-06 
0.0582083 -0.124101 0.0849629 -0.00811291 -0.0997711 0.0372994 1682 1207 0 1.19265e-05 -4.52445e-05 -8.47236e-05 2.2075e-09 3.51351e-07 
0.0420709 -0.0830483 0.140061 0.0463057 -0.102612 0.0618981 1485 671 0 -0.000871454 -0.00499727 -0.0014728 5.31438e-08 8.46707e-06 
0.0154454 -0.117308 0.049212 0.0219186 -0.102052 0.0548247 1293 274 0 -0.000594214 0.000333011 -0.000589226 1.99597e-08 3.17795e-06 
0.0295045 -0.0595038 0.0268557 0.0394574 -0.0914505 0.00931203 2269 1919 0 -7.44976e-05 0.000315996 -0.00044037 1.05421e-08 1.67819e-06 
-0.0184932 -0.01067 0.113499 0.0157322 -0.026398 0.0599428 736 119 0 -0.000405084 -0.00171836 -0.00177192 2.71799e-08 4.32816e-06 
0.0178668 -0.0435706 0.0803275 0.00179929 -0.0264545 0.0799347 1083 250 0 0.000854335 0.00159331 -0.000864414 2.41693e-08 3.84852e-06 
-0.00811785 -0.0997761 0.0373016 0.015307 -0.146879 0.0461953 1207 1926 0 -0.000239686 -2.97516e-05 1.81431e-06 9.89658e-09 1.5754e-06 
-0.00811785 -0.0997761 0.0373016 0.00817203 -0.0990813 0.0327648 1207 1599 0 -7.9461e-05 -0.000188802 5.64582e-05 7.12648e-09 1.13438e-06 
-0.132464 -0.146994 -0.171192 -0.221078 0.0443031 -0.107762 1259 487 0 -0.0169052 0.0219333 -0.0207742 1.797e-07 2.87031e-05 
0.00817203 -0.0990813 0.0327648 -0.0300774 -0.164212 0.0333735 1599 833 0 -0.000348144 -0.000777831 0.00339301 4.41093e-08 7.02639e-06 
0.00817203 -0.0990813 0.0327648 -0.0158753 -0.0619981 0.035775 1599 1443 0 -0.000483606 0.00134406 -0.00375468 4.4654e-08 7.11323e-06 
-0.0365422 -0.192653 0.0344122 0.0487794 -0.0887139 0.279583 1290 763 0 0.000100306 0.000219514 -0.000132213 1.45442e-09 2.31485e-07 
-0.0365422 -0.192653 0.0344122 -0.0335005 -0.133096 0.0443493 1290 448 0 0.00030782 0.000367314 -0.00210271 3.00161e-08 4.78006e-06 
-0.0365422 -0.192653 0.0344122 0.0063745 -0.100952 -0.0314559 1290 237 0 -0.000111468 7.13147e-05 -0.000111051 4.83743e-09 7.69975e-07 
0.0219271 -0.102059 0.0548315 0.0479071 -0.109084 0.0360381 274 383 0 -2.31235e-05 2.54576e-05 -0.000134237 8.76533e-09 1.39529e-06 
0.0579012 -0.117748 0.0277645 0.00359762 -0.0457632 0.0917559 1858 189 0 4.32428e-05 1.1694e-05 0.000336866 2.49842e-09 3.97655e-07 
-0.00135271 -0.0639772 0.0507575 0.0229586 -0.0959741 0.0910038 976 846 0 -0.00908386 -0.00108857 0.00399912 9.1463e-08 1.45834e-05 
-0.00135271 -0.0639772 0.0507575 0.00406693 -0.0847313 0.0317381 976 2261 0 0.00105337 0.00135126 -0.0016805 3.35574e-08 5.3444e-06 
-0.00135271 -0.0639772 0.0507575 -0.00487026 -0.0627435 0.0572546 976 1327 0 -0.00068439 -0.00143518 -0.00186836 3.76775e-08 6.00106e-06 
0.00924822 -0.0713802 0.035016 -0.0262011 -0.0221289 0.0903886 1271 609 0 0.00185257 -0.00125064 0.00209661 4.65493e-08 7.41543e-06 
0.00924822 -0.0713802 0.035016 -0.0138456 -0.0493494 0.0626724 1271 236 0 -0.00167421 0.00102127 -0.00345606 4.44411e-08 7.07929e-06 
-0.00958578 -0.053432 0.065901 0.0229586 -0.0959741 0.0910038 1482 846 0 0.000615861 0.00251189 0.00300989 5.30265e-08 8.44835e-06 
-0.00958578 -0.053432 0.065901 -0.0184826 -0.0106777 0.113521 1482 736 0 -0.000528995 -0.000186801 0.00221635 2.78657e-08 4.43743e-06 
-0.00958578 -0.053432 0.065901 0.00180601 -0.0264442 0.0799289 1482 250 0 0.00184045 -0.00170932 0.000100397 3.87664e-08 6.17464e-06 
-0.00958578 -0.053432 0.065901 0.0236699 -0.0707984 0.0422019 1482 1748 0 -0.00109712 0.00125967 -0.00400724 4.93891e-08 7.86825e-06 
0.00180601 -0.0264442 0.0799289 -0.000722407 -0.000271005 0.0385361 250 1872 0 0.000186728 -0.000349492 -0.0012044 1.6045e-08 2.55446e-06 
-0.0114844 -0.0530485 0.0854933 0.0157329 -0.0263825 0.0599642 371 119 0 0.000208473 -0.000373216 0.000302542 1.60101e-08 2.54891e-06 
-0.0114844 -0.0530485 0.0854933 -0.0225618 -0.109295 0.0452127 371 1803 0 -8.13993e-05 0.000540474 -0.000797687 2.15108e-08 3.42502e-06 
0.0157329 -0.0263825 0.0599642 0.018445 -0.0346465 0.0547294 119 881 0 -0.000154824 -0.000890898 -3.77251e-05 1.43738e-08 2.28831e-06 
0.0278613 -0.0469285 0.0734147 -0.00930673 -0.0643423 0.0642161 384 1217 0 0.000141162 4.23634e-05 -0.000247568 1.23773e-08 1.9704e-06 
0.0142595 0.0106601 0.0424119 0.0178576 -0.0435847 0.0803335 1596 1083 0 -6.91101e-05 0.000414035 9.29427e-05 1.5083e-08 2.40126e-06 
0.0142595 0.0106601 0.0424119 -0.00358144 -0.0634344 0.0573239 1596 1701 0 -0.000136452 -0.000976463 -4.41322e-05 4.83357e-09 7.6936e-07 
0.0142595 0.0106601 0.0424119 0.0129448 0.0491761 0.03158 1596 867 0 -3.02075e-06 -0.000267975 -0.00053265 1.91208e-08 3.04433e-06 
0.015307 -0.146879 0.0461953 0.00589323 -0.164093 0.0256346 1926 322 0 -0.000966032 -0.00107699 -0.00101208 1.75816e-08 2.79918e-06 
0.00589323 -0.164093 0.0256346 -0.0335005 -0.133096 0.0443493 322 448 0 -0.00252709 -0.000756914 -0.000243505 3.39887e-08 5.41314e-06 
0.0479071 -0.109084 0.0360381 -0.0268426 -0.0532552 0.0104363 383 1815 0 -0.00118827 0.000403032 -0.000764979 2.24184e-09 3.56816e-07 
0.00406693 -0.0847313 0.0317381 0.0420779 -0.115211 0.0115113 2261 546 0 -0.000342759 0.000633419 -0.00105788 2.12931e-08 3.39034e-06 
0.0394588 -0.091451 0.00931267 0.0246096 -0.0881885 0.0960986 1919 204 0 -0.000256085 -0.000608141 0.000309497 1.14325e-08 1.81995e-06 
0.0394588 -0.091451 0.00931267 0.0288554 -0.0946202 0.00471948 1919 1571 0 0.000275233 0.00105016 -0.000706582 2.49284e-08 3.96945e-06 
-0.00487026 -0.0627435 0.0572546 0.0146034 -0.0271763 0.00634943 1327 1408 0 -3.3347e-05 -0.00109839 -0.00143115 2.5716e-08 4.09493e-06 
0.0246096 -0.0881885 0.0960986 -0.0750046 -0.00376317 0.105253 204 1428 0 -0.00169291 -0.000822263 -0.0010345 1.56094e-08 2.48508e-06 
0.0246096 -0.0881885 0.0960986 -0.00042996 -0.0835182 0.0791957 204 312 0 8.99761e-07 -1.07236e-05 2.55106e-06 2.2798e-09 3.62857e-07 
-0.0750046 -0.00376317 0.105253 -0.000255008 -0.0597356 0.106943 1428 924 0 -0.000696656 0.00343413 0.0080483 9.00157e-08 1.43522e-05 
-0.0750046 -0.00376317 0.105253 -0.00324799 -0.0149066 0.117604 1428 1142 0 0.00122029 -0.00273487 -0.009955 9.24387e-08 1.47392e-05 
-0.00358144 -0.0634344 0.0573239 -0.00690842 -0.0608856 0.0661134 1701 953 0 -3.03682e-05 -1.3794e-05 -2.78884e-05 4.46654e-09 7.10935e-07 
0.0396226 -0.0286972 0.116389 0.0147655 -0.0371496 0.115172 1779 1531 0 0.00061057 0.000205424 0.00160036 3.41169e-08 5.43356e-06 
0.0396226 -0.0286972 0.116389 0.0352224 -0.00593456 0.101598 1779 1298 0 -0.000695831 0.000254669 0.000593651 1.57732e-08 2.51118e-06 
0.0396226 -0.0286972 0.116389 0.0133366 -0.0675486 0.0736728 1779 526 0 0.000193149 0.000518685 -0.00222347 3.11326e-08 4.95798e-06 
-0.0158753 -0.0619981 0.035775 -0.0268426 -0.0532552 0.0104363 1443 1815 0 -0.00713874 0.000205554 -0.00252148 6.79153e-08 1.08237e-05 
-0.0268426 -0.0532552 0.0104363 -0.108554 -0.169172 0.0358375 1815 402 0 -0.00235701 0.000345311 -0.00134983 4.65582e-08 7.41685e-06 
-0.0335005 -0.133096 0.0443493 -0.0109331 -0.0897544 0.0351844 448 2098 0 -0.0012941 0.000334329 -0.00569975 6.38249e-08 1.0171e-05 
-0.0126213 -0.0726981 0.0371157 0.0065798 -0.0944036 0.0359312 330 1861 0 0.000231796 9.41364e-05 -0.000400369 1.11119e-08 1.76891e-06 
0.0288554 -0.0946202 0.00471948 0.00371642 -0.109285 -0.00155232 1571 1455 0 0.000107083 0.00040007 -0.000303654 1.82408e-08 2.90417e-06 
-0.0362692 -0.0326638 0.0768114 -0.0138456 -0.0493494 0.0626724 957 236 0 -0.00692975 0.00436889 0.00145054 8.47197e-08 1.35064e-05 
-0.0362692 -0.0326638 0.0768114 -0.00490325 -0.0498235 0.0431773 957 1044 0 0.00513405 -0.00351561 -0.00250817 5.36559e-08 8.54873e-06 
0.0236699 -0.0707984 0.0422019 0.0284662 -0.0859212 0.0284563 1748 1261 0 -0.00170861 0.000715731 -0.00148964 3.59531e-08 5.72622e-06 
0.0236699 -0.0707984 0.0422019 -0.0170755 -0.0860175 0.0278611 1748 1285 0 0.000125089 0.000558788 -0.0010461 1.89187e-08 3.01213e-06 
-0.0225618 -0.109295 0.0452127 -0.00490325 -0.0498235 0.0431773 1803 1044 0 -0.000873135 0.00111825 0.000124772 1.87436e-08 2.98425e-06 
-0.0225618 -0.109295 0.0452127 -0.00425809 -0.0997062 0.0497627 1803 1283 0 0.000548854 -3.45178e-05 -0.000669321 1.68399e-08 2.68105e-06 
-0.00490325 -0.0498235 0.0431773 0.0284662 -0.0859212 0.0284563 1044 1261 0 0.00194204 -0.00122961 -0.00060745 1.57888e-08 2.51365e-06 
-0.00490325 -0.0498235 0.0431773 0.0128829 -0.0650134 0.0477494 1044 1740 0 -0.000103521 -0.000262874 -0.000180099 1.21488e-08 1.93401e-06 
-0.000722407 -0.000271005 0.0385361 0.0146034 -0.0271763 0.00634943 1872 1408 0 -4.33414e-05 0.000205925 -0.000540066 1.31344e-08 2.09096e-06 
-0.00324799 -0.0149066 0.117604 0.00411403 -0.0224511 0.104098 1142 1247 0 0.00405624 -0.00218689 -0.00652644 7.46056e-08 1.18915e-05 
0.0129448 0.0491761 0.03158 0.002911 -0.0209966 0.0457711 867 1606 0 -0.000214746 2.72317e-05 -0.00117212 2.66763e-08 4.24792e-06 
-0.00690842 -0.0608856 0.0661134 -0.0240612 -0.0550767 0.0542293 953 1255 0 -5.40927e-06 -3.24425e-06 1.2254e-06 8.00668e-10 1.27432e-07 
0.0133366 -0.0675486 0.0736728 -0.0268342 -0.0563025 0.0207873 526 1607 0 0.000646566 0.000283222 -0.000557655 1.45591e-08 2.31783e-06 
-0.0438357 -0.201184 -0.0213845 -0.0129865 -0.108091 0.000394096 1521 701 0 0.00252775 -0.000230767 -0.000798325 3.72122e-08 5.9269e-06 
-0.0438357 -0.201184 -0.0213845 -0.0330361 -0.0948908 -0.0447728 1521 594 0 -0.00191848 0.000127419 -0.000144244 3.63048e-08 5.78226e-06 
-0.0330361 -0.0948908 -0.0447728 -0.0423506 -0.111896 -0.0347648 594 919 0 -0.0013364 3.76103e-05 -0.000968405 2.80171e-08 4.46155e-06 
0.00575077 -0.0809676 -0.0647709 0.00324382 -0.0950045 -0.00903546 509 1945 0 -0.000297068 -0.000219486 0.000121638 1.42537e-08 2.26919e-06 
0.00371642 -0.109285 -0.00155232 0.0181226 -0.0939588 -0.00017049 1455 316 0 0.000108209 0.00021949 -0.000102022 6.41088e-09 1.02045e-06 
-0.0109331 -0.0897544 0.0351844 0.0209579 -0.100951 0.0317916 2098 1989 0 0.000398489 -0.000690097 -0.000274253 6.9245e-09 1.10222e-06 