ITEM: TIMESTEP
18650000
ITEM: NUMBER OF ENTRIES
1200
ITEM: BOX BOUNDS ff ff ff
-0.01 0.45
-0.15 0.15
-0.08 0.1
ITEM: ENTRIES c_ppc[1] c_ppc[2] c_ppc[3] c_ppc[4] c_ppc[5] c_ppc[6] c_ppc[7] c_ppc[8] c_ppc[9] c_ppc[10] c_ppc[11] c_ppc[12] c_ppc[13] c_ppc[14] 
-0.209507 -2.62767 1.23639 0.520409 -1.38557 0.148041 1082 1594 0 -0.0963554 0.158711 0.11914 5.91054e-07 9.52022e-05 
7.07153e-07 7.10225e-07 -3.44586e-09 -6.4377e-07 2.40919e-07 -5.43178e-10 665 23 0 -0.316367 -1.33987 -0.23374 2.35693e-06 0.000394579 
0.170338 0.156085 -0.573407 1.15477 11.0404 -2.40995 1399 647 0 0.0294395 0.517097 -0.0915766 1.04716e-07 1.6701e-05 
0.0632718 0.0315414 0.0731985 -0.704096 0.227564 -0.0629169 1471 1366 0 -0.0305805 -0.0322019 0.00930427 1.98141e-07 3.16605e-05 
0.0632718 0.0315414 0.0731985 0.184319 -0.028507 -0.0123452 1471 811 0 -0.000994305 -0.0011836 -0.002325 3.32171e-08 5.29016e-06 
7.62429 4.39853 -10.1251 1.15477 11.0404 -2.40995 1201 647 0 0.0717776 0.444543 -0.0421139 2.16455e-07 3.45995e-05 
7.62429 4.39853 -10.1251 -0.0863768 0.385219 -0.0978605 1201 1874 0 -0.0729352 -0.0335626 -0.0173405 2.38171e-07 3.80873e-05 
-0.0624307 -0.111898 0.135241 -0.153219 -0.223275 -0.0967887 512 627 0 -0.00230586 0.00461115 0.000290857 5.95644e-08 9.49124e-06 
0.184319 -0.028507 -0.0123452 0.256017 0.0537171 0.0284403 811 1352 0 0.00648821 -0.000423761 -0.00663564 8.58705e-08 1.36901e-05 
1.08038 6.8095 -5.81158 -0.194931 0.651804 -0.217514 905 1076 0 0.00248866 -0.00521302 -0.00203681 3.3358e-07 5.3448e-05 
-0.0138765 -0.205051 0.219572 -0.02449 -0.221696 -0.0561918 1968 1243 0 0.00475684 0.00149906 -0.0101853 4.71192e-08 7.50629e-06 
0.256017 0.0537171 0.0284403 0.0422919 -0.0323199 -0.0198549 1352 589 0 0.0062286 -0.0011671 -0.00203396 9.33605e-08 1.48865e-05 
-0.0995372 0.160512 -0.0356593 0.0681751 0.0814214 -0.294796 373 791 0 -0.0130472 0.0234258 -0.0225885 1.92288e-07 3.07216e-05 
-0.0721224 0.0225959 0.08476 0.0682045 -0.0344568 -0.050462 251 2027 0 -0.001631 0.00245868 -0.0052124 5.93824e-08 9.46219e-06 
0.143566 -0.0528071 -0.12294 0.0682045 -0.0344568 -0.050462 1741 2027 0 -0.00365018 -0.0016694 0.0010531 1.91433e-08 3.04792e-06 
-0.0040604 -0.0644254 -0.223193 0.0422919 -0.0323199 -0.0198549 1070 589 0 -0.00532907 -0.00157129 0.00201707 6.71231e-08 1.06973e-05 
-0.0040604 -0.0644254 -0.223193 0.13469 -0.120497 -0.274693 1070 361 0 0.000709402 0.000311661 -1.23916e-05 1.55178e-08 2.4705e-06 
0.0334709 -0.0862271 -0.00619872 0.00930467 -0.0925724 -0.019605 865 1773 0 -0.000116539 7.91466e-05 5.68539e-05 3.72402e-09 5.9274e-07 
0.104019 0.393108 0.14486 0.645075 0.324449 0.130876 158 631 0 -0.0110519 -0.0129219 -0.0346271 2.50801e-07 4.01174e-05 
0.37543 0.0976975 0.737165 0.247162 0.568707 -0.82733 2308 1662 0 -0.0509868 -0.0243058 -0.00206273 3.39651e-07 5.44275e-05 
0.652788 -0.0450888 -0.447542 0.98008 0.294404 -0.808122 2296 1014 0 0.00737432 -0.00319394 -0.000479077 4.05349e-08 6.45653e-06 
-0.0102442 0.391039 0.19225 0.199076 0.11239 0.147665 1445 983 0 -3.84617e-05 -0.000375312 -0.00101075 1.15635e-08 1.84081e-06 
0.247162 0.568707 -0.82733 0.29673 0.395672 -0.205239 1662 1056 0 -0.0136725 -0.0344782 0.0295297 1.79453e-07 2.86635e-05 
0.00699368 0.522496 0.249813 0.142237 0.293687 -0.0533394 1958 197 0 0.00587172 -0.0487243 0.00919314 2.17343e-07 3.47421e-05 
0.0894401 -0.182123 -0.0964665 0.762145 0.291045 1.00138 520 1049 0 0.000693476 -0.000685591 0.000555665 1.17176e-09 1.86496e-07 
0.0894401 -0.182123 -0.0964665 0.134722 -0.385923 0.24697 520 602 0 -0.00536698 -0.00567456 -0.0050034 1.11084e-07 1.77188e-05 
0.340524 -0.0144391 0.137785 0.283023 0.0176547 -0.00688542 476 826 0 -0.00626964 -0.0343925 0.00146455 2.19081e-07 3.50211e-05 
0.142237 0.293687 -0.0533394 0.0300822 0.10433 -0.0594221 197 529 0 0.0103915 -0.0223366 -0.0141378 1.22744e-07 1.95833e-05 
0.142237 0.293687 -0.0533394 0.0782708 0.177322 0.0827923 197 1913 0 8.7105e-05 -0.000239829 0.00100393 3.71239e-08 5.91283e-06 
0.283023 0.0176547 -0.00688542 0.400879 0.00888856 0.00913282 826 1680 0 -0.0368428 0.0138065 -0.00013692 2.5288e-07 4.04516e-05 
0.283023 0.0176547 -0.00688542 0.122892 -0.137669 -0.0280357 826 241 0 0.027192 -0.0499262 -4.81958e-05 2.78659e-07 4.45986e-05 
0.400879 0.00888856 0.00913282 0.36808 -0.177935 -0.00809446 1680 58 0 -0.0442444 0.00792379 0.00181268 2.42238e-07 3.8741e-05 
0.36808 -0.177935 -0.00809446 0.110964 -0.170611 0.0155037 58 1216 0 -0.00416732 0.000130502 -0.000543608 4.03533e-08 6.42759e-06 
0.0640995 -0.0541164 -0.000530251 0.0300822 0.10433 -0.0594221 1308 529 0 0.0320128 1.48093e-06 -0.0010886 2.08069e-07 3.32534e-05 
0.0640995 -0.0541164 -0.000530251 0.122892 -0.137669 -0.0280357 1308 241 0 -0.0398264 -0.00765801 0.00243319 2.17935e-07 3.48371e-05 
0.110964 -0.170611 0.0155037 0.0794856 -0.00523248 -0.0050093 1216 935 0 -0.00190711 -0.00153665 0.00259392 5.8837e-08 9.37519e-06 
0.110964 -0.170611 0.0155037 0.0634315 -0.0407655 0.0345679 1216 1495 0 0.0031814 -0.00194175 -0.000273015 9.08706e-08 1.44888e-05 
0.0300822 0.10433 -0.0594221 0.0182833 -0.0314118 0.0489635 529 1654 0 -0.00488827 0.0037061 8.6176e-05 2.95628e-08 4.70784e-06 
0.122892 -0.137669 -0.0280357 0.0689862 -0.0414631 0.0656632 241 210 0 -0.0144895 -0.0613224 -0.00178916 3.23862e-07 5.18806e-05 
0.0634315 -0.0407655 0.0345679 0.0689862 -0.0414631 0.0656632 1495 210 0 0.00497352 -0.0121869 0.0033221 9.73101e-08 1.55175e-05 
0.0634315 -0.0407655 0.0345679 0.0124418 0.125267 -0.023697 1495 1956 0 -0.00160558 0.00984439 -0.00879658 6.75684e-08 1.07683e-05 
0.645075 0.324449 0.130876 0.877298 0.137928 -0.171796 631 1943 0 -0.00640069 -0.0158427 -0.00431761 1.15039e-07 1.83512e-05 
0.447176 0.171852 0.24242 0.00310927 0.00440735 0.270391 429 2216 0 0.00656459 -0.0323613 -0.0237912 2.11583e-07 3.38175e-05 
0.134722 -0.385923 0.24697 -0.0705171 -0.12929 0.189834 602 168 0 -0.00289305 -0.0131953 -0.00275025 1.51428e-07 2.41736e-05 
0.0182833 -0.0314118 0.0489635 0.101966 -0.0409671 0.0610438 1654 962 0 -0.00123596 -0.00290001 -0.00178264 5.92014e-08 9.43332e-06 
0.026915 0.00122899 0.0373842 0.0273204 0.00801262 0.0528523 937 2229 0 -0.00014981 5.92342e-06 0.000100954 3.67454e-09 5.84864e-07 
0.877298 0.137928 -0.171796 0.126809 0.363292 -0.255151 1943 1176 0 -0.00556011 -0.002635 -0.00230063 9.79971e-08 1.56273e-05 
0.126809 0.363292 -0.255151 0.00818452 0.277519 0.0617574 1176 447 0 -0.0110419 -0.00588616 -0.0125759 1.63549e-07 2.6115e-05 
0.0782708 0.177322 0.0827923 -0.0471839 0.0575012 0.234978 1913 804 0 -0.000235082 -0.00227308 -0.00341274 5.33757e-08 8.50404e-06 
-0.0471839 0.0575012 0.234978 -0.00820502 0.137531 0.1373 804 606 0 -0.00222258 0.000558276 -0.004336 5.06872e-08 8.07526e-06 
-0.0471839 0.0575012 0.234978 0.000165105 0.143452 0.107944 804 1665 0 0.000129872 0.00114791 0.000485767 7.7591e-10 1.23492e-07 
-0.0705171 -0.12929 0.189834 0.0242828 -0.0661535 0.0823 168 1418 0 -0.00603981 -0.0549954 0.00752009 3.07059e-07 4.91721e-05 
-0.0705171 -0.12929 0.189834 0.00310927 0.00440735 0.270391 168 2216 0 -0.0102879 0.0404155 -0.00471329 2.16751e-07 3.46471e-05 
-0.0705171 -0.12929 0.189834 -0.00820502 0.137531 0.1373 168 606 0 0.00634305 0.00903482 -0.0149642 9.31979e-08 1.48605e-05 
0.101966 -0.0409671 0.0610438 -0.00820502 0.137531 0.1373 962 606 0 -0.00665311 0.00255338 -0.00283332 3.39795e-09 5.40837e-07 
0.12267 -0.0853372 0.288835 0.00310927 0.00440735 0.270391 1570 2216 0 -0.000974195 -0.0100322 0.00736827 1.13371e-07 1.80845e-05 
0.00310927 0.00440735 0.270391 -0.0359406 0.0658487 0.175071 2216 1666 0 -0.011694 0.00947634 -0.00987743 4.66952e-08 7.43869e-06 
-0.0288852 -0.0292005 -0.00865221 0.0746675 0.0119091 -0.0165661 2303 1354 0 0.00261863 -4.83961e-05 0.00685689 2.20753e-08 3.51494e-06 
-0.0288852 -0.0292005 -0.00865221 -0.0600029 0.0748406 -0.202196 2303 786 0 0.00378319 -0.00542623 -0.0103255 9.55051e-08 1.52291e-05 
-0.00820502 0.137531 0.1373 0.0425237 0.111133 0.177515 606 793 0 -0.00375391 -0.00277374 8.4638e-05 1.41869e-08 2.25856e-06 
-0.00820502 0.137531 0.1373 0.0355792 0.323022 0.243699 606 1264 0 0.00100653 0.0119627 -0.0191699 1.50462e-07 2.4019e-05 
0.0273204 0.00801262 0.0528523 0.103938 0.00425805 0.133034 2229 1592 0 0.000217354 -0.00185189 0.00228588 1.79372e-08 2.85582e-06 
0.140187 0.347142 -0.0433897 0.0259888 -0.045809 0.162688 1927 295 0 -0.00391761 -0.000390584 0.00325261 9.17866e-08 1.46351e-05 
0.0355792 0.323022 0.243699 -0.160942 0.316472 0.370275 1264 264 0 0.000255385 0.00467794 -0.00360552 6.83593e-08 1.08946e-05 
-0.153064 0.322587 0.0113735 -0.145486 0.130509 -0.0855088 807 2309 0 -0.014195 -0.0039732 -0.011294 1.29263e-07 2.06261e-05 
0.0425237 0.111133 0.177515 -0.0291454 -0.0363078 0.0339008 793 1064 0 0.00196244 -0.00216863 -0.00280316 2.01306e-08 3.20518e-06 
-0.160942 0.316472 0.370275 -0.135202 0.240039 0.16869 264 727 0 0.0127024 0.00626706 -0.0208105 1.02781e-07 1.63917e-05 
-0.145486 0.130509 -0.0855088 -0.108149 -0.0824844 0.00737259 2309 818 0 -0.00865274 -0.00244611 -0.0108679 9.54754e-08 1.52244e-05 
-0.0291454 -0.0363078 0.0339008 -0.012415 0.12069 0.0959177 1064 2202 0 0.00345291 0.00362366 -0.00233409 1.8869e-08 3.00423e-06 
0.0429886 -0.210346 -0.0578319 0.0883949 -0.0986641 0.0375995 235 1121 0 -0.000798193 0.000185353 -0.011578 1.24331e-07 1.98372e-05 
-0.204336 -0.104806 0.458135 -0.0464567 -0.055474 0.183089 2290 1046 0 -0.000997023 -0.0018491 -0.000557483 5.60795e-08 8.9353e-06 
0.20792 -0.12443 -0.195909 0.0475552 -0.237005 -0.0814258 2312 1009 0 0.00788055 -0.00564049 -0.00208946 1.15917e-07 1.84915e-05 
-0.039914 0.0697266 0.106628 -0.012415 0.12069 0.0959177 1466 2202 0 0.00535414 -0.000138604 0.000428819 5.70779e-08 9.09458e-06 
-0.039914 0.0697266 0.106628 0.0470523 0.140596 0.101837 1466 1864 0 -0.000905905 -0.00158728 0.00116022 5.87259e-08 9.35747e-06 
-0.039914 0.0697266 0.106628 -0.139212 0.0318927 0.207581 1466 572 0 -0.00241836 0.001996 -0.00180409 6.29994e-08 1.00393e-05 
-0.0464567 -0.055474 0.183089 0.0475552 -0.237005 -0.0814258 1046 1009 0 -0.0145695 0.000448111 0.00188228 1.50666e-07 2.40515e-05 
-0.0464567 -0.055474 0.183089 -0.139212 0.0318927 0.207581 1046 572 0 0.00434045 -0.000956326 -0.00693861 1.05022e-07 1.67498e-05 
0.0475552 -0.237005 -0.0814258 0.010395 -0.237601 0.238223 1009 2021 0 -0.0019104 -0.00841738 -0.00635611 1.3312e-07 2.12432e-05 
-0.108149 -0.0824844 0.00737259 -0.0932951 -0.0548585 0.144317 818 1877 0 0.00141039 -0.00130327 -0.00200977 7.70219e-08 1.22773e-05 
-0.135202 0.240039 0.16869 0.0702592 0.234189 0.114846 727 685 0 -0.00866659 0.0102676 -0.0194791 1.68751e-07 2.69483e-05 
-0.135202 0.240039 0.16869 -0.139212 0.0318927 0.207581 727 572 0 -0.000495694 -0.0120597 -0.0096105 8.45093e-08 1.34728e-05 
-0.0250349 -0.147245 0.00787161 0.0133798 -0.0222219 -0.0206036 2311 1852 0 0.00140921 0.00159891 -0.000205314 2.38587e-08 3.79903e-06 
0.010395 -0.237601 0.238223 -0.109385 -0.0783555 0.0575711 2021 1895 0 0.00485736 -0.0150519 0.00224495 1.75189e-07 2.79801e-05 
0.010395 -0.237601 0.238223 -0.116599 0.348173 0.396378 2021 1426 0 -0.00625235 0.000782706 -0.0153923 1.40676e-07 2.24523e-05 
0.0883949 -0.0986641 0.0375995 -0.0374916 0.164765 -0.0602892 1121 226 0 -0.00632024 0.0262409 -0.0339433 9.16046e-08 1.4606e-05 
0.797465 0.319951 0.241134 0.214504 0.380358 0.15254 1324 175 0 -0.00429988 -0.0136462 -0.00874071 1.19338e-07 1.90386e-05 
0.0702592 0.234189 0.114846 -0.209992 0.220565 0.41368 685 514 0 0.000863522 0.00138757 -0.00187943 1.41254e-07 2.25448e-05 
0.0217956 0.893909 -0.447027 -0.0374916 0.164765 -0.0602892 651 226 0 0.00113647 0.00172499 0.00627704 2.30826e-07 3.69073e-05 
-0.139212 0.0318927 0.207581 -0.176791 0.235157 0.190559 572 15 0 -0.00206413 -0.00490991 -0.0104278 8.61292e-08 1.37315e-05 
-0.0625984 -0.135168 0.410596 -0.145213 0.128266 0.158529 1894 760 0 0.0123461 0.000149346 -0.0123072 8.37584e-09 1.33328e-06 
-0.016453 -0.0118643 0.138813 -0.03361 -0.00444678 0.209606 170 1511 0 -0.00466981 -0.00218148 -0.00338222 7.12941e-08 1.13629e-05 
-0.03361 -0.00444678 0.209606 -0.0228773 0.156473 0.116698 1511 2113 0 -0.000104278 0.00240249 -0.00177774 9.07201e-10 1.44388e-07 
-0.03361 -0.00444678 0.209606 -0.160871 0.240026 0.172258 1511 2256 0 -0.00552852 0.00191654 -0.00467015 5.06218e-08 8.06483e-06 
-0.03361 -0.00444678 0.209606 -0.00429919 0.0196136 0.116637 1511 1794 0 0.000988568 -0.00637643 0.00015907 5.98118e-08 9.5307e-06 
-0.116599 0.348173 0.396378 0.247347 0.510405 0.238573 1426 2160 0 -0.000954072 0.00548128 -0.00148628 7.86668e-08 1.25399e-05 
-0.116599 0.348173 0.396378 0.144964 0.322697 0.376891 1426 886 0 0.00331439 -0.00317697 -0.0115461 9.6466e-08 1.53826e-05 
-5.87301 1.14261 -6.14576 -4.916 7.78687 -7.07618 1780 1960 0 -1.40218 0.814625 -2.00188 3.25007e-06 0.000555891 
-0.209992 0.220565 0.41368 0.0553703 0.243465 0.192887 514 869 0 0.0413417 0.0060941 -0.0091532 1.57286e-07 2.51117e-05 
-0.0374916 0.164765 -0.0602892 0.0553703 0.243465 0.192887 226 869 0 -0.0101776 0.0350688 -0.0321855 2.78284e-07 4.45383e-05 
0.214504 0.380358 0.15254 -0.145213 0.128266 0.158529 175 760 0 -0.0696781 -0.0660826 0.0343629 3.37367e-07 5.40589e-05 
0.214504 0.380358 0.15254 0.014187 0.639627 0.425389 175 2291 0 0.0125524 0.00142869 -0.0254317 2.50677e-07 4.00975e-05 
-0.176791 0.235157 0.190559 -0.160871 0.240026 0.172258 15 2256 0 0.00689393 -0.0165477 -0.010331 1.44318e-07 2.30352e-05 
-0.176791 0.235157 0.190559 0.014187 0.639627 0.425389 15 2291 0 -0.00125637 0.00582009 -0.00517536 9.20053e-08 1.467e-05 
-0.0228773 0.156473 0.116698 -0.00472848 0.0544714 0.100517 2113 86 0 0.00167481 -0.0160841 0.00219798 9.3047e-08 1.48364e-05 
-0.0228773 0.156473 0.116698 -0.0806616 0.358077 0.23943 2113 713 0 0.0021912 0.0409981 -0.0340223 2.45619e-07 3.92843e-05 
-0.0228773 0.156473 0.116698 0.00922495 0.0937796 0.0941788 2113 977 0 -0.000424806 -2.58138e-05 -0.000182802 2.81373e-08 4.48069e-06 
-0.00429919 0.0196136 0.116637 -0.00472848 0.0544714 0.100517 1794 86 0 0.00130945 -0.000722338 -0.000609606 2.28694e-08 3.64144e-06 
0.0553703 0.243465 0.192887 0.166714 0.151747 0.0364451 869 1602 0 0.00688732 -0.0110505 -0.00873531 7.15818e-08 1.14089e-05 
0.594178 0.130231 0.195045 0.982507 -0.262493 0.455039 671 1555 0 0.020856 0.049344 -0.0373961 3.59667e-07 5.76584e-05 
0.594178 0.130231 0.195045 0.0053912 -0.0189417 0.545888 671 609 0 -0.0168918 -0.0258991 -0.0132376 1.9938e-07 3.18592e-05 
-0.0806616 0.358077 0.23943 -0.211715 0.12072 0.0746854 713 2299 0 -0.00427857 0.00113568 -0.000568277 5.94342e-08 9.47046e-06 
-0.0806616 0.358077 0.23943 0.00922495 0.0937796 0.0941788 713 977 0 0.00697926 -0.0230463 0.00295137 4.18825e-08 6.67137e-06 
-0.0806616 0.358077 0.23943 0.166714 0.151747 0.0364451 713 1602 0 -0.00379868 0.0661433 -0.00990028 3.16271e-07 5.06568e-05 
-0.211715 0.12072 0.0746854 -0.0463535 0.226702 0.161737 2299 1288 0 -0.00200788 0.00127867 -0.0021795 5.23752e-08 8.34448e-06 
0.00922495 0.0937796 0.0941788 -0.160871 0.240026 0.172258 977 2256 0 -0.0216652 -0.00436405 0.0126834 1.44195e-07 2.30156e-05 
0.00922495 0.0937796 0.0941788 0.0548813 0.586805 0.654122 977 736 0 -0.0016407 0.00533066 -0.00185713 9.62358e-08 1.53458e-05 
0.00922495 0.0937796 0.0941788 0.0131417 0.0209569 0.0584718 977 1083 0 0.00966926 -0.00252598 -0.00809328 9.75636e-08 1.5558e-05 
0.00922495 0.0937796 0.0941788 -0.00486257 -0.0452101 0.199151 977 119 0 0.00408149 -0.0077014 -1.10345e-06 5.4003e-08 8.60411e-06 
-0.103923 0.131373 0.258267 -0.0701904 0.0832002 0.0931166 924 1398 0 0.00312493 0.000274926 0.000296032 2.95107e-08 4.69953e-06 
-0.160871 0.240026 0.172258 0.0407794 -0.000962528 0.18899 2256 294 0 -0.013818 -0.0241936 -0.00602849 1.72657e-07 2.75743e-05 
0.144964 0.322697 0.376891 0.0313438 -0.0605196 0.289638 886 2233 0 -0.00344847 -0.0023853 -0.00685299 4.90172e-08 7.80895e-06 
0.0407794 -0.000962528 0.18899 0.0313438 -0.0605196 0.289638 294 2233 0 -0.00120756 -0.00327649 -0.00594936 7.1748e-08 1.14354e-05 
0.617602 -1.35909 0.598276 -0.0922997 0.635696 0.622704 1105 315 0 0.0135857 -0.0163711 -0.0382318 3.65868e-07 5.86598e-05 
-0.0463535 0.226702 0.161737 0.131678 -0.0507438 0.209903 1288 629 0 0.00277705 -0.000244578 -0.00169867 4.48823e-08 7.14962e-06 
0.0053912 -0.0189417 0.545888 -0.0719283 -0.137 0.116383 609 1271 0 -0.00764135 -0.00893742 -0.0128156 4.70912e-08 7.50184e-06 
0.014187 0.639627 0.425389 0.268761 0.142329 0.43979 2291 204 0 -0.0175309 -0.000737915 -1.41101e-05 1.49861e-07 2.39226e-05 
0.014187 0.639627 0.425389 0.043247 0.162606 0.799831 2291 371 0 0.0211626 -0.00897653 -0.0237671 2.42573e-07 3.87948e-05 
0.0131417 0.0209569 0.0584718 -0.00486257 -0.0452101 0.199151 1083 119 0 -0.0047043 -0.00255453 -0.00566573 8.20559e-08 1.3081e-05 
0.0564901 0.0646978 0.176493 -0.0175354 -0.0223368 0.228097 384 1531 0 0.00212114 -0.00760763 -0.00700346 6.95238e-08 1.10804e-05 
0.0313438 -0.0605196 0.289638 -0.0034503 -0.0316822 0.256762 2233 312 0 0.00910843 0.00583468 -0.0108621 1.09254e-07 1.74262e-05 
0.0313438 -0.0605196 0.289638 0.0524715 -0.0484334 0.338943 2233 1779 0 -0.00602801 -0.00161497 -0.0056205 8.42174e-08 1.34261e-05 
0.0805807 -0.0441927 0.271107 0.0869805 -0.00624516 0.262622 1298 1229 0 -0.00105639 0.000605452 0.00136612 3.29349e-08 5.2452e-06 
-2.75668 3.81461 -2.04312 0.554417 0.167877 1.11255 1756 1758 0 0.00493746 -0.00838584 -0.235615 7.86907e-07 0.000127265 
0.752158 0.492155 -0.215283 -0.0924286 0.486247 0.147218 846 932 0 0.00116484 -0.00371322 -0.00268087 1.498e-07 2.3913e-05 
0.121757 0.14936 0.25427 0.131678 -0.0507438 0.209903 2269 629 0 0.00353116 -0.00399678 -0.00397228 2.94095e-08 4.68341e-06 
0.121757 0.14936 0.25427 0.340805 0.117393 0.430228 2269 763 0 -0.0197473 -0.00167976 -0.0120799 2.15468e-07 3.44411e-05 
0.0760412 -0.152615 0.319113 0.340805 0.117393 0.430228 1627 763 0 0.00477504 -0.00398837 -0.00195411 3.62561e-08 5.7745e-06 
0.0548813 0.586805 0.654122 -0.0924286 0.486247 0.147218 736 932 0 0.0112787 0.00476698 -0.0262767 1.25798e-07 2.00718e-05 
0.0548813 0.586805 0.654122 0.043247 0.162606 0.799831 736 371 0 -0.0381212 0.00535711 -0.000258666 2.11918e-07 3.38712e-05 
-0.00486257 -0.0452101 0.199151 0.013998 -0.0127745 0.179439 119 881 0 -0.0023822 -0.00988894 -0.00580852 1.08409e-07 1.72911e-05 
-0.00486257 -0.0452101 0.199151 0.0273594 -0.0324373 0.185776 119 1138 0 0.000555252 0.00221176 -0.00463975 5.03833e-08 8.0268e-06 
-0.0922997 0.635696 0.622704 -0.0156158 0.663742 0.294033 315 1293 0 0.000623381 -0.0556142 -0.0595091 3.28937e-07 5.26991e-05 
0.131374 -0.188897 0.0107974 0.102203 -0.142609 0.0190762 1067 824 0 0.00756475 -0.00376828 0.0058003 4.77568e-09 7.60145e-07 
-0.0924286 0.486247 0.147218 -0.0109523 0.100743 0.23857 932 250 0 0.00622964 -0.0168494 -0.0135525 1.19047e-07 1.8992e-05 
0.131678 -0.0507438 0.209903 -0.0740964 -0.0461399 0.164933 629 1482 0 0.000771321 -0.00262058 -0.0042222 7.95877e-08 1.26869e-05 
0.131678 -0.0507438 0.209903 0.0482705 0.0372624 0.296328 629 1919 0 -0.00219473 0.00170435 0.000515276 1.97473e-08 3.14412e-06 
0.0482705 0.0372624 0.296328 0.0745364 -0.0364611 0.210579 1919 957 0 -0.005261 -0.000693054 -0.00481706 7.05711e-08 1.12475e-05 
0.0273594 -0.0324373 0.185776 -0.0109523 0.100743 0.23857 1138 250 0 0.00418627 0.0106046 -0.00785407 1.05633e-07 1.68475e-05 
0.0273594 -0.0324373 0.185776 0.0460865 -0.00689592 0.187108 1138 2060 0 -0.00462152 -0.00255699 -0.0035097 6.9295e-08 1.10439e-05 
0.0457402 -0.0453509 0.168792 -0.0034503 -0.0316822 0.256762 1217 312 0 -0.00194105 -0.00335529 0.0057546 1.71369e-08 2.72835e-06 
0.013998 -0.0127745 0.179439 -0.01459 0.0167685 0.157782 881 1701 0 -0.00160412 -0.00308417 -0.0018557 1.58036e-08 2.51602e-06 
0.0524715 -0.0484334 0.338943 -0.00856852 3.39443e-05 0.301597 1779 5 0 0.00278397 -0.000282663 -0.00461966 6.75838e-08 1.07708e-05 
0.0524715 -0.0484334 0.338943 0.101508 -0.0252351 0.349741 1779 526 0 -0.000578822 -0.00386769 -0.00773718 8.41877e-08 1.34214e-05 
0.107036 -0.363669 -0.804844 0.146838 -0.112121 -0.327566 1522 1274 0 -0.031184 -0.00562473 -0.0150665 2.72675e-07 4.36355e-05 
0.0810804 -0.0835885 0.105553 0.102203 -0.142609 0.0190762 909 824 0 -0.0128757 -0.0106412 0.000868623 1.12361e-07 1.79229e-05 
0.0726584 0.0917009 -0.0280992 0.00678271 0.0719097 -0.112163 815 833 0 0.00209209 -4.28747e-05 -0.00268932 4.89769e-08 7.80253e-06 
0.0726584 0.0917009 -0.0280992 0.00236717 0.0266354 0.10759 815 274 0 -0.000558403 -0.000737668 -0.000451837 2.12901e-08 3.38985e-06 
0.102203 -0.142609 0.0190762 -0.0438907 -0.0430822 0.0709139 824 1290 0 8.89261e-05 0.000646067 -0.00110994 4.31314e-08 6.87047e-06 
0.101174 0.0725084 0.0449297 -0.0103271 0.0141106 0.239435 976 1327 0 0.000460977 0.000224911 0.00242296 1.91552e-08 3.0498e-06 
0.0244625 0.0939484 0.120744 -0.0299652 0.00116833 0.0603384 1858 2089 0 0.00298272 0.00739005 -0.0159379 1.3609e-07 2.17184e-05 
-0.0740964 -0.0461399 0.164933 -0.125007 -0.0932477 0.121414 1482 1803 0 -0.0080165 -0.00449157 -0.00923356 8.02812e-08 1.27976e-05 
-0.0740964 -0.0461399 0.164933 -0.0113091 -0.0347794 0.0779941 1482 1748 0 -0.000448883 4.28944e-05 -0.00281994 2.14237e-08 3.41115e-06 
0.0745364 -0.0364611 0.210579 -0.117006 -0.076785 0.0812294 957 1044 0 0.000158266 -0.00606001 -0.00517096 7.20291e-08 1.14803e-05 
-0.0109523 0.100743 0.23857 -0.0103271 0.0141106 0.239435 250 1327 0 -0.00560298 0.0123619 -0.0143866 1.61528e-07 2.57912e-05 
-0.125007 -0.0932477 0.121414 -0.117006 -0.076785 0.0812294 1803 1044 0 -0.00241178 -0.00264616 0.000243665 3.49494e-08 5.56624e-06 
-0.125007 -0.0932477 0.121414 0.0460865 -0.00689592 0.187108 1803 2060 0 0.000846299 -0.000518754 -2.08704e-05 1.41406e-08 2.25118e-06 
-0.125007 -0.0932477 0.121414 -0.0114531 0.000338388 0.216848 1803 1283 0 -0.00168942 -0.00136848 -0.00303816 3.5952e-08 5.72604e-06 
0.0192586 -0.0341538 0.277339 -0.117006 -0.076785 0.0812294 1142 1044 0 0.000455844 0.00600996 7.00974e-05 7.09231e-08 1.13037e-05 
0.0192586 -0.0341538 0.277339 0.101508 -0.0252351 0.349741 1142 526 0 -0.00348074 -0.00963381 0.00241115 1.02805e-07 1.63955e-05 
0.0192586 -0.0341538 0.277339 0.0166786 0.00682758 0.270884 1142 1030 0 0.00434978 0.00195772 -0.00132826 5.25057e-08 8.3653e-06 
-0.01459 0.0167685 0.157782 -0.0221455 -0.0266558 0.167499 1701 867 0 0.00183043 0.000811939 0.000796781 1.88015e-08 2.99347e-06 
0.101508 -0.0252351 0.349741 0.0409447 -0.0251798 0.310543 526 467 0 -0.00355282 4.15984e-05 -0.00146564 2.58594e-08 4.11777e-06 
0.00678271 0.0719097 -0.112163 -0.0724221 0.122484 -0.112459 833 1599 0 0.000217207 0.00344865 -0.00851462 7.97428e-08 1.27117e-05 
-0.0299652 0.00116833 0.0603384 0.170002 0.00974225 0.0101151 2089 1634 0 0.00270671 0.00117104 -0.00480396 3.68549e-08 5.86995e-06 
-0.0299652 0.00116833 0.0603384 0.0522965 0.147314 0.0754892 2089 1571 0 -1.33328e-05 0.00257 -0.000611696 5.3869e-08 8.58273e-06 
-0.0438907 -0.0430822 0.0709139 0.0832954 0.0695129 0.102533 1290 448 0 0.000380942 -0.000461216 -0.00287511 2.13079e-08 3.3927e-06 
-0.0103271 0.0141106 0.239435 0.032155 0.0773968 0.144397 1327 330 0 -0.00318072 0.000767123 -0.00971598 6.21759e-08 9.90787e-06 
-0.0103271 0.0141106 0.239435 0.0399581 0.109978 0.283294 1327 1624 0 -0.000366868 0.000424797 0.000614982 1.18374e-08 1.88443e-06 
-0.117006 -0.076785 0.0812294 -0.0654165 0.0345374 0.134243 1044 563 0 -0.00105656 -0.00121955 -0.00336696 3.34606e-08 5.32896e-06 
0.0379998 0.0796544 0.193247 -0.0721594 0.0625231 0.220715 653 280 0 6.58927e-06 0.000833635 -0.00164626 2.64537e-08 4.21246e-06 
0.0460865 -0.00689592 0.187108 -0.0114531 0.000338388 0.216848 2060 1283 0 0.00308055 0.000427085 0.000997789 2.91549e-09 4.64041e-07 
0.0460865 -0.00689592 0.187108 0.0166786 0.00682758 0.270884 2060 1030 0 -0.00673193 -0.00204724 -0.00398628 7.98425e-08 1.27276e-05 
0.0460865 -0.00689592 0.187108 0.0114573 -0.0324448 0.154244 2060 893 0 0.000642908 0.000158652 -0.00115286 1.02258e-08 1.62781e-06 
-0.0361046 -0.223061 -0.546391 0.0294285 -0.143468 -0.13121 1700 1832 0 0.0044781 -0.00495714 0.00417734 5.2014e-08 8.28687e-06 
-0.0313249 -0.157266 -0.0935556 -0.170199 0.0769498 -0.127493 1671 42 0 0.00241109 -0.00305936 -0.000736569 1.86115e-08 2.96322e-06 
0.0832954 0.0695129 0.102533 0.0689695 0.0970942 0.116052 448 1259 0 0.0014627 0.00266475 -0.00193465 3.74526e-08 5.96521e-06 
-0.0654165 0.0345374 0.134243 0.100748 0.143993 0.159248 563 2277 0 0.000158305 0.00133321 -3.9621e-05 2.55439e-08 4.06751e-06 
-0.0654165 0.0345374 0.134243 -0.0721594 0.0625231 0.220715 563 280 0 -0.00181598 -0.000689356 -0.000529808 4.12677e-08 6.57337e-06 
-0.0109814 -0.0134814 0.179464 0.0711514 -0.0126841 0.214221 1261 118 0 -6.44458e-05 -0.000305271 -7.01597e-05 8.27535e-09 1.31728e-06 
-0.0859698 0.115937 0.155706 -0.02065 0.183646 0.180368 1740 2223 0 -0.000258152 0.00162574 -0.00112547 3.32287e-08 5.29201e-06 
-0.0221455 -0.0266558 0.167499 0.0522199 -0.0158559 0.114995 867 1255 0 -3.25771e-05 -2.49715e-05 -0.000377308 7.36955e-09 1.17307e-06 
0.01972 -0.0101296 0.147347 0.0276726 0.0226932 0.156835 1607 2031 0 9.00843e-05 7.34698e-06 -1.91162e-05 2.75826e-09 4.39015e-07 
0.01972 -0.0101296 0.147347 -0.00937552 0.0739281 0.235958 1607 2000 0 4.69522e-05 2.76427e-05 3.49613e-05 4.86688e-09 7.74663e-07 
-0.00937552 0.0739281 0.235958 -0.00856315 0.0156989 0.226866 2000 1332 0 -1.35507e-05 -1.31681e-05 -3.6432e-05 2.46235e-10 3.91897e-08 
0.0298323 0.35281 -0.0808712 0.108611 -0.0346327 0.152703 1339 843 0 0.0142237 -0.0166266 0.00707141 2.80729e-08 4.47044e-06 
-0.0724221 0.122484 -0.112459 0.0748712 0.0772032 0.0406012 1599 593 0 0.00846825 0.00877258 -0.00428206 1.22009e-07 1.94657e-05 
-0.0724221 0.122484 -0.112459 0.00596463 0.0647712 0.0693189 1599 546 0 -0.00241658 -0.0118935 -0.000968441 9.69978e-08 1.54676e-05 
0.0689695 0.0970942 0.116052 -0.0933509 0.190925 -0.12858 1259 1771 0 0.000535085 0.00192201 -0.00026267 3.16063e-08 5.03346e-06 
0.0689695 0.0970942 0.116052 0.0689706 0.0332708 0.0847097 1259 4 0 -0.0016244 0.00453122 0.000198435 1.61912e-08 2.57774e-06 
0.00596463 0.0647712 0.0693189 0.032155 0.0773968 0.144397 546 330 0 -0.00640282 -0.00887866 -0.00300848 7.53165e-08 1.2005e-05 
0.032155 0.0773968 0.144397 0.0673391 0.0310627 0.0508403 330 1455 0 -0.00361025 -0.000254543 0.000280537 5.75774e-08 9.17424e-06 
0.032155 0.0773968 0.144397 -0.0345926 0.0608679 0.198047 330 1861 0 -0.0086356 -0.00146769 -0.00275177 5.69814e-08 9.07918e-06 
0.0673391 0.0310627 0.0508403 0.0684998 0.130626 0.0944282 1455 1989 0 -0.003005 -0.000855895 -0.00119544 6.10205e-08 9.72354e-06 
0.100748 0.143993 0.159248 0.0849093 0.0951509 0.0992679 2277 385 0 0.000296557 0.000917074 -0.00158285 3.24683e-08 5.17083e-06 
0.0399581 0.109978 0.283294 0.0924333 0.162555 0.343397 1624 1285 0 -0.00107353 0.00172242 0.00280146 1.38153e-10 2.19877e-08 
-0.02065 0.183646 0.180368 -0.0721594 0.0625231 0.220715 2223 280 0 -0.00415096 -0.00447737 -0.00201676 3.38434e-09 5.38671e-07 
-0.02065 0.183646 0.180368 -0.0323271 0.00865555 0.216845 2223 862 0 -0.00177692 -0.00108223 -0.00018235 2.27045e-08 3.61517e-06 
-0.02065 0.183646 0.180368 -0.052214 0.200628 0.109765 2223 655 0 0.00111062 0.00305041 -0.00356904 2.98325e-08 4.75082e-06 
-0.0230499 -0.0436855 0.166212 -0.0740558 -0.00766177 0.165121 1247 1130 0 3.67791e-05 2.00568e-05 7.9622e-05 4.80914e-09 7.65471e-07 
-0.363168 0.0265501 -0.00240573 -0.170199 0.0769498 -0.127493 1090 42 0 -0.000269601 0.00065687 0.000118529 2.50135e-08 3.98301e-06 
-0.170199 0.0769498 -0.127493 -0.0933509 0.190925 -0.12858 42 1771 0 0.00119468 -0.00515949 -0.00158395 8.8382e-08 1.40913e-05 
0.00598045 0.179431 0.0123771 -0.00728471 0.1337 -0.00852729 1926 1443 0 0.00151487 -0.00153484 -0.000638867 2.75674e-08 4.3899e-06 
-0.0933509 0.190925 -0.12858 -0.0359696 0.127796 0.109056 1771 322 0 0.0027308 -0.0100646 -0.00314619 1.09325e-07 1.74376e-05 
-0.0359696 0.127796 0.109056 0.0226925 0.131874 0.173043 322 402 0 0.000784615 -0.0098214 -0.00355786 9.15076e-08 1.45905e-05 
0.0849093 0.0951509 0.0992679 0.0456592 0.114127 0.0978316 385 2152 0 0.000753693 -0.000514252 -0.000320421 3.70427e-08 5.89988e-06 
0.0226925 0.131874 0.173043 0.0456592 0.114127 0.0978316 402 2152 0 -0.000527634 -2.97655e-05 0.000340502 2.86248e-08 4.55838e-06 
0.0226925 0.131874 0.173043 -0.0345926 0.0608679 0.198047 402 1861 0 0.00172712 -0.00142952 0.00267436 3.75098e-08 5.97433e-06 
0.0226925 0.131874 0.173043 0.0646477 0.129376 0.149136 402 316 0 -0.000938726 -0.00780059 -0.00306016 7.55219e-08 1.20378e-05 
-0.0345926 0.0608679 0.198047 0.0789513 0.185888 0.0928586 1861 1197 0 0.000325133 0.00243711 -0.00495207 3.0718e-08 4.89192e-06 
0.0924333 0.162555 0.343397 0.0991346 0.0960915 0.14111 1285 1334 0 -0.0146551 0.00788016 -0.005559 1.31319e-07 2.0955e-05 
0.0991346 0.0960915 0.14111 0.0646477 0.129376 0.149136 1334 316 0 -0.00704548 0.00379067 -0.00141757 5.82159e-08 9.2761e-06 
-0.0307721 -0.00132037 0.146098 0.00387877 0.0193076 0.183968 1886 1156 0 -0.00114 0.00109421 -0.000146741 3.12141e-08 4.97096e-06 
-0.0307721 -0.00132037 0.146098 0.040154 0.0138793 0.179654 1886 1118 0 0.000668146 -0.000839913 1.58326e-05 7.75303e-09 1.23412e-06 
-0.703645 0.228055 -0.0631464 -0.000531398 -0.00162239 -0.11134 1366 1804 0 -0.00036185 0.000816049 -0.00606622 5.43795e-08 8.66416e-06 
-0.0499316 0.0577904 0.0348254 0.022135 0.0555854 0.053134 1099 1319 0 -0.00041987 -0.00221744 0.00198514 3.04666e-08 4.85186e-06 
0.223193 0.0270379 -0.00713689 -0.0402115 0.139104 -0.187382 2023 223 0 -0.015283 -0.0100001 0.0103899 1.10723e-07 1.76611e-05 
0.223193 0.0270379 -0.00713689 0.0689906 0.0332769 0.0847046 2023 4 0 -0.00108178 -0.00153309 0.000884992 1.43281e-08 2.28103e-06 
0.223193 0.0270379 -0.00713689 0.176969 0.142391 0.120238 2023 1486 0 0.0124516 0.00239075 -0.00779587 1.30016e-07 2.07464e-05 
0.0689906 0.0332769 0.0847046 0.0599877 -0.0121991 0.113657 4 509 0 0.00149107 -0.000712444 -0.000438576 1.60698e-08 2.55841e-06 
-0.0073631 0.13385 -0.00855767 -0.0795256 0.292529 0.107528 1443 1207 0 -0.00254231 0.00866634 -0.000531644 5.20226e-08 8.28824e-06 