ITEM: TIMESTEP
18600000
ITEM: NUMBER OF ENTRIES
837
ITEM: BOX BOUNDS ff ff ff
-0.01 0.45
-0.15 0.15
-0.08 0.1
ITEM: ENTRIES c_ppc[1] c_ppc[2] c_ppc[3] c_ppc[4] c_ppc[5] c_ppc[6] c_ppc[7] c_ppc[8] c_ppc[9] c_ppc[10] c_ppc[11] c_ppc[12] c_ppc[13] c_ppc[14] 
-1.96799e-10 -2.01613e-10 2.39779e-12 1.79583e-10 -6.58059e-11 -1.56174e-12 665 23 0 -0.316373 -1.33987 -0.233479 2.35694e-06 0.00039458 
0.0652098 1.1985 0.830409 -0.122633 -0.646546 0.389097 931 1615 0 -0.0212952 -0.177562 -0.00436643 1.58337e-08 2.52081e-06 
0.0652098 1.1985 0.830409 0.560349 -1.52233 -0.051002 931 945 0 -0.0340977 -0.0143022 0.0194096 2.45972e-07 3.93411e-05 
-0.487428 -0.858998 0.783618 -0.405718 -1.69266 0.168421 1594 1047 0 -0.0103919 -0.000466343 0.00618489 8.22639e-08 1.31142e-05 
-0.0966981 -0.281692 -0.086847 -0.0767423 -0.266979 -0.316668 647 242 0 -0.0026003 0.00757552 -0.00529566 7.02302e-08 1.11931e-05 
-0.0767423 -0.266979 -0.316668 -0.221438 -0.0353656 -0.0670129 242 1201 0 -0.0124737 0.00807882 0.000559739 7.30802e-08 1.1648e-05 
0.000196151 -0.269372 0.0234242 -0.0509258 -0.22597 -0.0988263 1070 627 0 -0.00372091 0.000750196 0.000517149 3.98935e-08 6.35429e-06 
-0.0334407 -0.415199 -0.034036 -0.0197794 -0.384975 -0.00546656 1653 2123 0 6.72215e-05 -0.00124584 -0.000758898 3.52615e-08 5.61598e-06 
-0.0108668 -0.215261 -0.1372 -0.0517137 -0.167948 0.029925 1329 104 0 -0.000832791 -0.0038878 -4.46147e-05 1.21095e-08 1.92775e-06 
-0.0517137 -0.167948 0.029925 -0.0197794 -0.384975 -0.00546656 104 2123 0 -0.00741013 -0.000934467 0.000963649 7.79793e-08 1.24301e-05 
-0.0197794 -0.384975 -0.00546656 0.041956 -0.330453 -0.00650187 2123 1108 0 -0.00479111 -0.00176177 0.000540593 7.35514e-08 1.17232e-05 
0.00282537 -0.369845 0.0271182 0.01231 -0.321495 0.00725159 1967 1719 0 -0.000968659 0.000428884 -0.000423061 2.08829e-08 3.32499e-06 
-1.07418 0.841425 0.230871 -0.330774 0.0577508 0.316932 207 2308 0 0.042321 -0.084195 -0.0638723 2.11125e-07 3.3744e-05 
-0.0712563 -0.526981 0.204553 -0.544083 -0.0381665 0.461282 2108 983 0 -0.0478793 -0.0287799 -0.107628 5.15582e-07 8.29169e-05 
0.610815 0.206687 -0.833353 0.165283 -0.286307 -0.736222 2296 1943 0 0.0157766 -0.0292078 -0.0679394 3.29071e-07 5.27207e-05 
-0.400728 0.315511 -0.155071 -0.409112 0.044948 0.082568 1014 1056 0 -0.000676098 -0.00393324 0.00465002 2.95576e-10 4.70427e-08 
-0.400728 0.315511 -0.155071 -1.04775 0.446081 -0.129957 1014 216 0 -0.0329706 0.0323831 -0.0304562 2.23506e-07 3.57317e-05 
-0.175645 0.19381 -0.0486316 -0.328941 0.178532 -0.345355 1662 1049 0 0.0165879 -0.0217661 -0.0067423 2.02192e-07 3.23103e-05 
-0.175645 0.19381 -0.0486316 -0.513412 -0.260463 -0.325874 1662 1570 0 0.0139678 0.0173585 -0.136629 5.07325e-07 8.15751e-05 
-0.368027 -0.0568856 -0.0186751 -0.197187 0.0829716 0.0875959 1680 1956 0 -0.000628643 -0.00657415 -0.00644865 1.21546e-07 1.93916e-05 
0.0170293 -0.0106569 0.00662495 0.0439717 -0.0298528 0.0146146 197 1308 0 -0.00629437 -0.00171956 0.0001844 7.32749e-08 1.16791e-05 
-0.13141 -0.15913 0.0371705 -0.0677759 -0.0940248 0.00597518 58 1216 0 0.00454343 -0.00639182 0.000542913 8.50991e-08 1.35669e-05 
0.0439717 -0.0298528 0.0146146 -0.0136284 0.00528233 0.00627025 1308 241 0 -0.00898377 -0.012595 0.00118738 1.18889e-07 1.89667e-05 
0.0439717 -0.0298528 0.0146146 -0.184597 -0.0701994 -0.0111001 1308 520 0 0.000755176 0.00679961 -0.00251724 7.76288e-08 1.23742e-05 
-0.0677759 -0.0940248 0.00597518 -0.118711 0.0290695 0.0457465 1216 935 0 -0.00696885 -0.000599212 -0.00204278 7.27934e-08 1.16023e-05 
-0.0677759 -0.0940248 0.00597518 -0.0895273 -0.080512 0.0291501 1216 1495 0 0.0103718 -0.0114163 -0.0015843 1.29627e-07 2.06843e-05 
-0.0136284 0.00528233 0.00627025 -0.0485173 -0.000967022 0.0232232 241 210 0 -0.00884559 -0.0134206 -0.000898168 1.20932e-07 1.92934e-05 
-0.0895273 -0.080512 0.0291501 -0.0485173 -0.000967022 0.0232232 1495 210 0 0.0105871 -0.00937529 0.000436668 1.2074e-07 1.92627e-05 
-0.0485173 -0.000967022 0.0232232 -0.0217122 0.0608475 0.0414592 210 1418 0 0.000230348 0.00286622 -0.00304582 4.53473e-08 7.22377e-06 
-2.23767 -0.330787 -0.938555 -2.64203 0.753893 1.69146 351 1296 0 -0.222475 0.0424959 -0.187184 9.85565e-07 0.00016006 
-0.544083 -0.0381665 0.461282 -0.379767 0.25481 -0.331013 983 2119 0 0.0336971 -0.0352476 0.0136601 2.87645e-07 4.60451e-05 
-0.544083 -0.0381665 0.461282 -0.23428 0.327475 -0.125022 983 264 0 -0.0553187 -0.0221738 -0.045974 3.22918e-07 5.17285e-05 
-0.379767 0.25481 -0.331013 0.00970829 0.088418 0.0604107 2119 930 0 0.00542919 -0.0278219 -0.017748 1.65199e-07 2.63791e-05 
-0.276155 -0.211817 0.0935509 -0.243813 -0.0168388 0.164558 1166 2216 0 0.0031092 7.69393e-05 -0.000558715 5.02014e-08 7.9978e-06 
-0.197187 0.0829716 0.0875959 -0.0862861 -0.0981741 0.0468337 1956 2303 0 -0.00206131 -0.00142277 -0.00349684 5.65616e-08 9.01221e-06 
-0.197187 0.0829716 0.0875959 -0.155253 -0.0795612 0.102378 1956 2229 0 -0.00083101 -0.0044079 -0.00549022 2.72356e-08 4.33703e-06 
0.036691 -0.0341637 0.120851 0.0515938 0.00408917 0.100418 1654 804 0 0.00309199 0.00146666 -0.00210377 3.97081e-08 6.32474e-06 
-0.0217122 0.0608475 0.0414592 0.0129455 0.0957712 0.104898 1418 795 0 0.000976117 0.000413942 -0.0018288 4.02543e-08 6.4118e-06 
-0.513412 -0.260463 -0.325874 -0.23428 0.327475 -0.125022 1570 264 0 0.121457 0.0588191 -0.0659329 5.09235e-07 8.18854e-05 
-0.26009 -0.126671 0.00733397 -0.196735 -0.135921 0.0628674 1176 1557 0 0.000471371 -0.00091452 -0.000348312 2.82868e-08 4.50452e-06 
0.00970829 0.088418 0.0604107 0.0477064 0.132792 -0.0302762 930 1264 0 -0.00477767 -0.00514387 0.00326637 3.82287e-08 6.08892e-06 
-0.183297 0.00995583 -0.191399 -0.311782 -0.0991077 0.0949328 1582 1666 0 0.000667749 0.000289121 0.000929646 1.28125e-09 2.03922e-07 
-0.183297 0.00995583 -0.191399 0.0477064 0.132792 -0.0302762 1582 1264 0 -0.00130664 0.00117298 0.00101865 1.72021e-08 2.73874e-06 
-0.0106268 -0.0216671 0.0300319 0.0515938 0.00408917 0.100418 1913 804 0 9.32788e-05 0.00030754 5.46566e-05 5.63401e-09 8.96781e-07 
-0.0106268 -0.0216671 0.0300319 -0.0505854 0.161729 0.0491695 1913 606 0 0.000210874 0.000216681 0.000132959 7.9607e-10 1.267e-07 
-0.0505854 0.161729 0.0491695 0.0477064 0.132792 -0.0302762 606 1264 0 0.000367349 0.00233223 0.000461422 3.2024e-08 5.10003e-06 
-0.0505854 0.161729 0.0491695 0.0129455 0.0957712 0.104898 606 795 0 -0.00191036 -0.00022841 -0.00232527 1.60113e-08 2.54909e-06 
-0.0862861 -0.0981741 0.0468337 -0.0365853 -0.068006 0.0824454 2303 2225 0 -0.000470376 0.00141483 0.00010748 2.42388e-08 3.85958e-06 
-0.0862861 -0.0981741 0.0468337 -0.00461928 0.135901 0.0651876 2303 807 0 0.00457995 0.00291599 -0.00239655 3.48438e-08 5.54942e-06 
-0.0862861 -0.0981741 0.0468337 -0.0307054 -0.182554 0.1257 2303 786 0 0.00142514 -0.00220581 -0.00180447 2.94504e-08 4.68992e-06 
0.0515938 0.00408917 0.100418 0.0425024 -0.0194622 0.0508272 804 1665 0 -0.000103265 -0.00110539 -0.000448992 1.26003e-08 2.0059e-06 
0.199783 0.175906 0.126144 -0.23428 0.327475 -0.125022 734 264 0 -0.12562 -0.0314862 0.0565427 4.75816e-07 7.64593e-05 
0.0129455 0.0957712 0.104898 0.016226 0.0124636 0.182905 795 793 0 0.00290618 -0.000410092 0.000876867 3.174e-08 5.05477e-06 
0.0129455 0.0957712 0.104898 -0.0393288 0.0213265 0.148681 795 489 0 -0.0106776 -0.000592049 -0.00180418 8.8345e-08 1.40853e-05 
0.0129455 0.0957712 0.104898 0.0694511 -0.00334663 0.173968 795 1864 0 0.00188462 0.000152196 -0.00139727 5.00706e-08 7.97694e-06 
-0.0393288 0.0213265 0.148681 -0.0307054 -0.182554 0.1257 489 786 0 -0.00678202 0.00148894 0.00120596 7.74088e-08 1.2339e-05 
-0.0393288 0.0213265 0.148681 -0.0788763 -0.00664447 0.068364 489 1592 0 -0.00200499 -0.0129768 0.00428019 1.15019e-07 1.83479e-05 
-0.0393288 0.0213265 0.148681 -0.06423 -0.0470951 0.103203 489 57 0 0.00312784 0.00241952 0.000816985 6.61325e-08 1.05392e-05 
-0.0393288 0.0213265 0.148681 -0.112088 -0.0673251 0.108163 489 2021 0 -0.00308647 0.00753897 -0.00998338 1.12675e-07 1.79731e-05 
0.016226 0.0124636 0.182905 0.0694511 -0.00334663 0.173968 793 1864 0 -0.00350253 0.0012377 -0.00205188 5.75603e-08 9.17152e-06 
0.00359265 -0.186291 0.0145993 -0.00700714 -0.201635 0.0632961 2085 1466 0 -0.00122338 0.000492198 0.00092295 6.83291e-09 1.08764e-06 
-0.00700714 -0.201635 0.0632961 -0.06423 -0.0470951 0.103203 1466 57 0 -0.00638807 -0.00234219 0.00020718 7.03261e-08 1.12085e-05 
-0.06423 -0.0470951 0.103203 -0.112088 -0.0673251 0.108163 57 2021 0 -0.00827417 -0.00219684 -0.00423557 7.76519e-08 1.23778e-05 
-0.139156 -0.178304 0.219471 -0.0706649 -0.0537045 0.0602921 493 263 0 -0.00383184 0.00100299 -0.00402426 5.05304e-08 8.05027e-06 
0.0694511 -0.00334663 0.173968 0.0294368 -0.0401081 0.120288 1864 2202 0 0.00221115 0.00100268 0.000888481 4.13492e-08 6.58636e-06 
0.0694511 -0.00334663 0.173968 0.0264792 -0.00562234 0.129429 1864 961 0 -0.0115752 -0.000599794 -0.00485252 9.11443e-08 1.45325e-05 
-0.0828234 -0.586073 0.312922 0.0418966 -0.167164 0.439716 2257 685 0 -0.000864353 2.52837e-05 6.96889e-05 3.34059e-08 5.32025e-06 
-0.0828234 -0.586073 0.312922 -0.162809 -0.220973 0.278792 2257 228 0 -0.00103465 -0.00370383 -0.00204592 5.56547e-08 8.86755e-06 
-0.0836138 -0.196992 0.328558 -0.101194 -0.102409 0.151319 1894 572 0 -0.00645114 -0.0077229 -0.00286397 1.79618e-08 2.85973e-06 
-0.112088 -0.0673251 0.108163 -0.119796 0.0170691 0.108612 2021 1426 0 -0.0101487 0.00403867 -0.0149116 1.35269e-07 2.1587e-05 
0.0294368 -0.0401081 0.120288 0.0197146 -0.126465 0.0827515 2202 170 0 -0.000482923 0.000533578 -0.000762605 2.81547e-08 4.48346e-06 
-0.015476 0.00632075 0.231974 -0.0688628 -0.0318319 0.172489 1715 2212 0 0.0126852 -0.00034118 -0.00812525 1.26237e-07 2.0142e-05 
-0.0641737 -0.220877 -0.0587213 0.118305 -0.347141 -0.282545 1765 1480 0 0.00114234 -0.000856291 -9.53208e-05 3.76537e-08 5.99727e-06 
0.0418966 -0.167164 0.439716 -0.0207555 0.0560336 0.280818 685 175 0 0.00182691 -0.00149517 -0.00109575 5.91537e-08 9.42571e-06 
-0.101194 -0.102409 0.151319 -0.154371 -0.129212 0.220611 572 15 0 -0.000431072 -0.000526393 -0.000945565 2.41214e-08 3.84089e-06 
-0.119796 0.0170691 0.108612 -0.0663454 0.0270253 0.235347 1426 760 0 0.001353 0.00324538 -0.00312957 5.29482e-08 8.43587e-06 
-0.119796 0.0170691 0.108612 -0.137178 -0.0804937 0.147404 1426 1398 0 -0.000414465 -0.0016161 -0.00723947 8.07358e-08 1.28702e-05 
-0.17411 -0.0232285 0.116975 -0.160168 -0.0133945 0.104909 747 952 0 -0.000109442 0.00243204 0.000169759 5.41747e-09 8.62311e-07 
-0.0821308 0.0335109 0.180884 -0.0207555 0.0560336 0.280818 2299 175 0 -0.0112529 0.00448076 0.00512897 1.18223e-07 1.88603e-05 
-0.0821308 0.0335109 0.180884 0.0064692 -0.115207 0.132877 2299 226 0 0.00135448 -0.00164071 0.000565619 6.39815e-09 1.01843e-06 
-0.0821308 0.0335109 0.180884 -0.0248432 0.0187741 0.207412 2299 713 0 0.0186863 -0.00738938 -0.00754028 1.41866e-07 2.26428e-05 
-0.0207555 0.0560336 0.280818 -0.0663454 0.0270253 0.235347 175 760 0 -0.00536683 -0.00331871 -0.00258107 5.08444e-08 8.10034e-06 
-0.0663454 0.0270253 0.235347 -0.133662 -0.0092112 0.330834 760 609 0 0.000994098 -1.35932e-05 -0.00144407 2.04462e-08 3.25544e-06 
-0.154371 -0.129212 0.220611 -0.112092 -0.120914 0.238756 15 384 0 -0.000286353 -0.000260773 -0.000443689 2.4893e-08 3.96381e-06 
-0.125036 0.0277163 0.158807 -0.137178 -0.0804937 0.147404 924 1398 0 0.00249088 -0.00459094 0.00149407 3.75376e-08 5.97876e-06 
-0.160168 -0.0133945 0.104909 -0.151473 -0.0223557 0.0596644 952 886 0 -0.00157724 0.000882137 -0.000436547 2.9127e-08 4.63839e-06 
-0.133662 -0.0092112 0.330834 -0.148544 0.0492822 0.356695 609 204 0 -0.000498266 0.00076427 -8.14176e-05 1.82554e-08 2.90649e-06 
-0.133662 -0.0092112 0.330834 -0.0746223 0.0985677 0.284227 609 1271 0 0.000233916 0.000579252 0.000325867 4.60348e-09 7.32734e-07 
-0.0248432 0.0187741 0.207412 -0.0551814 -0.101086 0.277692 713 736 0 0.000183288 -2.91789e-05 9.58909e-05 1.18647e-09 1.88836e-07 
-0.073352 -0.101935 0.292741 -0.0551814 -0.101086 0.277692 2291 736 0 0.0134011 -0.0054589 -0.00861122 1.25442e-07 2.00147e-05 
-0.148544 0.0492822 0.356695 -0.112092 -0.120914 0.238756 204 384 0 0.00157361 -0.00405079 -0.00455481 7.31964e-09 1.16513e-06 
-0.137178 -0.0804937 0.147404 -0.112092 -0.120914 0.238756 1398 384 0 0.00134587 0.000684872 -0.000628773 3.34373e-08 5.32526e-06 
-0.137178 -0.0804937 0.147404 0.050959 -0.107482 0.268191 1398 2233 0 0.00309704 -0.00464427 -0.00472802 7.45985e-08 1.18904e-05 
-0.151473 -0.0223557 0.0596644 -0.189804 0.150221 0.221717 886 1428 0 8.01255e-06 -3.80996e-05 0.000162336 2.85239e-09 4.53998e-07 
0.0210647 -0.0207413 0.167794 0.0737783 -0.0687658 0.134211 86 1389 0 -0.00191357 0.000429554 -8.15041e-05 4.18596e-08 6.66772e-06 
0.0210647 -0.0207413 0.167794 0.0038857 -0.0281432 0.147097 86 1140 0 0.0013415 -0.000295614 -0.00277434 3.20134e-08 5.09834e-06 
-0.0551814 -0.101086 0.277692 -0.0499863 -0.0942241 0.303778 736 371 0 -0.00108302 0.000214601 -0.000713182 2.94612e-08 4.69165e-06 
-0.0551814 -0.101086 0.277692 -0.076927 -0.053624 0.178967 736 932 0 0.00934469 -0.0031905 -0.0118582 1.06442e-07 1.69769e-05 
-0.112092 -0.120914 0.238756 -0.0499863 -0.0942241 0.303778 384 371 0 0.000404724 0.000135604 -0.000284578 2.22178e-08 3.53764e-06 
0.0220464 -0.0932828 0.201081 0.0737783 -0.0687658 0.134211 119 1389 0 0.000186236 -0.00176749 0.000794109 3.64388e-08 5.80363e-06 
0.050959 -0.107482 0.268191 0.0966402 -0.0101211 0.111078 2233 294 0 0.00343628 -0.00559586 0.000168021 7.82828e-08 1.24786e-05 
0.050959 -0.107482 0.268191 -0.0831852 0.0635011 0.264541 2233 312 0 0.00153889 1.66256e-05 -0.00645114 6.08342e-08 9.69382e-06 
0.0737783 -0.0687658 0.134211 0.0966402 -0.0101211 0.111078 1389 294 0 -0.00158908 -0.00107978 0.000237095 3.81543e-08 6.07706e-06 
-0.194592 -0.797834 -0.602924 2.52477 2.78063 -5.01856 2204 1141 0 0.359669 -0.0947825 -0.126445 3.65082e-07 5.85329e-05 
-0.215519 -0.133161 -0.213111 -0.541314 0.234709 -0.411246 1551 909 0 -0.0175945 -0.00519963 -0.0237962 1.12496e-07 1.79445e-05 
0.112595 0.227175 -0.042503 -0.0848138 -0.0489174 0.420532 763 1919 0 0.00356068 -0.00780831 -0.00179439 1.00043e-07 1.59541e-05 
-0.0848138 -0.0489174 0.420532 -0.0499863 -0.0942241 0.303778 1919 371 0 0.00654209 -0.00661816 -0.00332266 7.2404e-08 1.15401e-05 
-0.128351 -0.00472341 0.381581 0.0150197 0.0856765 0.386363 1234 236 0 -0.00448067 0.00414758 -0.000271042 7.37255e-08 1.1751e-05 
-0.128351 -0.00472341 0.381581 -0.0831852 0.0635011 0.264541 1234 312 0 0.00505734 -0.00566394 0.00181072 8.58391e-08 1.36851e-05 
-0.0831852 0.0635011 0.264541 -0.182969 0.0779184 0.100602 312 1531 0 -0.00117373 -0.0056017 0.00118108 6.67868e-08 1.06436e-05 
-0.0831852 0.0635011 0.264541 -0.102552 0.0128256 0.179834 312 1217 0 0.0137404 0.0031244 -0.0118086 1.17501e-07 1.87449e-05 
-0.085676 -0.181527 0.312911 -0.224939 -0.185608 0.108129 1858 2287 0 0.000706358 -8.73094e-05 -0.000966055 1.96453e-08 3.12787e-06 
0.329622 -0.1315 0.692572 0.242482 -0.0107254 0.50008 1067 957 0 -1.78391e-05 6.69904e-05 5.13231e-05 2.75101e-08 4.38077e-06 
-0.076927 -0.053624 0.178967 -0.010678 -0.104448 0.244051 932 1138 0 -0.000638431 -0.000243802 7.44142e-05 3.25285e-08 5.18043e-06 
-0.076927 -0.053624 0.178967 -0.0238752 -0.0364398 0.15194 932 250 0 0.00370364 -0.00131304 -0.00744976 7.00753e-08 1.11684e-05 
0.0150197 0.0856765 0.386363 -0.00709781 -0.120935 0.123633 236 653 0 0.00855347 -0.0134541 -0.00870713 4.76629e-08 7.593e-06 
-0.010678 -0.104448 0.244051 -0.102552 0.0128256 0.179834 1138 1217 0 -0.00160191 -0.000390252 -0.000195473 2.69912e-08 4.29809e-06 
-0.102552 0.0128256 0.179834 -0.0545501 -0.00523215 0.177615 1217 881 0 0.00808351 -0.00563713 -0.00265246 7.35587e-08 1.17244e-05 
-0.102552 0.0128256 0.179834 -0.0485105 -0.0388861 0.154149 1217 1803 0 0.00443588 0.00989913 -0.0134095 1.32352e-07 2.11203e-05 
-0.0545501 -0.00523215 0.177615 0.0405438 -0.0360894 0.208101 881 1701 0 0.00484358 -0.00429195 -0.00648315 7.71626e-08 1.22997e-05 
-0.0700234 0.150877 0.0474901 -0.0366766 -0.0157103 0.174667 1779 467 0 -2.06226e-05 -5.31592e-05 0.000248068 1.62286e-08 2.5837e-06 
2.52477 2.78063 -5.01856 -0.389512 3.42699 -2.71276 1141 1017 0 -0.0796416 -0.090107 0.121068 4.02336e-07 6.45548e-05 
-0.224939 -0.185608 0.108129 0.0492287 -0.169203 0.241074 2287 1748 0 -2.68983e-05 0.000623253 0.000466345 4.88379e-10 7.77287e-08 
0.242482 -0.0107254 0.50008 0.0942581 0.0174067 0.24964 957 1044 0 0.00311662 -0.00987826 0.00117238 1.08728e-07 1.73422e-05 
0.242482 -0.0107254 0.50008 -0.0045968 -0.317421 0.35861 957 1290 0 -0.00267872 0.00476292 -0.0017948 5.95685e-08 9.49189e-06 
0.242482 -0.0107254 0.50008 -0.0211834 -0.0810922 0.241119 957 1571 0 -0.000396519 0.000959412 -0.00588432 4.44989e-08 7.0885e-06 
0.0942581 0.0174067 0.24964 0.00929515 0.0673636 0.136183 1044 1142 0 0.000550649 -0.0176684 -0.00283996 1.48218e-07 2.36597e-05 
0.0942581 0.0174067 0.24964 -0.0485105 -0.0388861 0.154149 1044 1803 0 0.00296431 -0.000672947 0.000427857 8.03286e-08 1.28052e-05 
-0.0485105 -0.0388861 0.154149 -0.0224723 0.0226272 0.186159 1803 2060 0 0.00832971 -0.00401958 -0.00640318 1.02823e-07 1.63984e-05 
0.00929515 0.0673636 0.136183 -0.00127048 0.0478743 0.11851 1142 526 0 -0.00390505 -0.0156237 -0.00540103 1.22789e-07 1.95905e-05 
0.0405438 -0.0360894 0.208101 -0.0146123 -0.0574445 0.243243 1701 1872 0 0.000627042 0.00210937 0.000186035 5.11561e-08 8.15005e-06 
-0.0291275 -0.00448394 0.122414 0.0547212 0.0518935 0.209151 5 953 0 -0.00142386 0.00117806 -0.00215319 1.39947e-08 2.22794e-06 
-0.214748 -0.163429 0.135264 -0.0945767 -0.121968 0.0334008 274 436 0 -0.00459272 0.0012832 -0.00241315 8.33963e-08 1.3295e-05 
-0.0045968 -0.317421 0.35861 0.00856096 -0.184571 0.379946 1290 448 0 0.000180715 0.00017868 -0.000469393 1.20254e-08 1.91435e-06 
-0.0211834 -0.0810922 0.241119 -0.0133841 0.0108099 0.240763 1571 1261 0 -0.000832022 -0.00144947 0.00484001 2.61693e-08 4.16714e-06 
-0.0211834 -0.0810922 0.241119 0.00438416 -0.0894205 0.356953 1571 1455 0 0.00720542 0.000453578 -0.0087903 1.22119e-07 1.94833e-05 
-0.0146123 -0.0574445 0.243243 -0.0224723 0.0226272 0.186159 1872 2060 0 -0.0122619 0.00694247 0.00306672 1.12173e-07 1.78928e-05 
-0.0146123 -0.0574445 0.243243 0.00610448 0.0515063 0.170562 1872 867 0 0.00313726 -0.00178933 -0.000691708 4.63442e-08 7.38273e-06 
-0.0224723 0.0226272 0.186159 0.00362785 0.00252277 0.166241 2060 1030 0 -0.0038213 0.000228021 0.00689128 2.11471e-08 3.36708e-06 
-0.0224723 0.0226272 0.186159 0.0547212 0.0518935 0.209151 2060 953 0 0.000715749 0.000701698 0.000236945 1.98221e-08 3.15602e-06 
0.0547212 0.0518935 0.209151 0.0163674 -0.025561 0.19985 953 2031 0 -0.000320021 -0.00137421 -0.0026593 3.38462e-08 5.39042e-06 
-0.0960733 -0.0044216 -0.348987 0.0748505 0.0897657 -0.420147 1758 833 0 0.00194726 -0.00555607 -0.0034831 5.42443e-08 8.64259e-06 
0.00438416 -0.0894205 0.356953 0.0332731 -0.0896117 0.216844 1455 330 0 0.00634953 0.000619595 -0.00443554 5.71478e-08 9.10572e-06 
-0.0133841 0.0108099 0.240763 -0.0830034 -0.0412211 0.20256 1261 1283 0 0.00277469 5.38328e-05 -2.29674e-05 6.18344e-08 9.85338e-06 
0.0098503 -0.0611764 0.115333 0.0139456 -0.0222971 0.155683 1408 1624 0 0.000439521 -0.00105488 -0.0013282 4.74108e-09 7.54637e-07 
-0.0830034 -0.0412211 0.20256 0.0434472 -0.080249 0.197782 1283 1285 0 0.000384382 -0.000410868 -0.00108758 1.24913e-08 1.98855e-06 
0.0104739 -0.00162953 0.162024 -0.0183461 0.00295338 0.193599 1607 1247 0 -0.00157457 0.00100386 -0.000864929 3.04548e-08 4.84997e-06 
-0.116222 -0.0780691 0.162693 -0.000694657 -0.00622561 0.248507 2000 1130 0 -0.000238017 -0.000386465 0.000769208 9.18991e-09 1.46289e-06 
0.128901 0.00905516 0.026094 -0.0450387 -0.124474 0.240325 1599 383 0 -0.00772714 -0.00321576 -0.00280477 2.2232e-08 3.53989e-06 
0.0259561 -0.135622 0.228742 0.00480345 -0.018487 0.265907 2277 478 0 -0.000775618 -0.000214806 0.000866096 1.9854e-08 3.16111e-06 
0.0139456 -0.0222971 0.155683 0.009492 -0.0461053 0.127022 1624 546 0 0.00204266 -0.000256805 -0.000258089 4.70892e-09 7.49518e-07 
0.0139456 -0.0222971 0.155683 -0.0261481 -0.0312391 0.185942 1624 1861 0 -0.00056569 0.0004502 -0.000511938 1.56693e-08 2.49462e-06 
-0.0147034 -0.115578 0.211226 -0.0431797 -0.0459629 0.278633 1989 1334 0 0.00294821 -0.00134932 -0.00151422 7.27373e-08 1.15933e-05 
0.0434472 -0.080249 0.197782 -0.01304 -0.0303234 0.131427 1285 386 0 -0.000155023 -0.000366425 0.000245795 1.01336e-08 1.61313e-06 
-0.00594336 -0.0910175 0.151608 -0.01304 -0.0303234 0.131427 118 386 0 0.000581964 0.000181081 0.000167949 9.13608e-09 1.45432e-06 
-0.0183461 0.00295338 0.193599 -0.000775618 -0.0352769 0.224927 1247 721 0 -0.000438077 0.000530287 6.37398e-05 2.68811e-08 4.28054e-06 
-0.0183461 0.00295338 0.193599 -0.0488499 -0.023827 0.160747 1247 1156 0 0.000762543 -0.000117989 -0.000341994 1.28935e-08 2.05259e-06 
0.0163674 -0.025561 0.19985 -0.0274309 -0.0257676 0.0924272 2031 1255 0 -1.80611e-05 9.18553e-06 -5.96228e-05 3.98942e-13 6.34936e-11 
0.037345 -0.0476807 0.130053 -0.0387137 -0.10706 0.250235 1926 1815 0 -0.000203914 -0.00140803 0.000223008 1.48183e-08 2.3591e-06 
-0.00295442 -0.180305 0.170661 0.00121963 -0.218475 0.195688 322 4 0 0.00037482 -0.000209663 0.0003297 1.87797e-09 2.989e-07 
-0.00504088 -0.0839928 0.378558 -0.0121837 -0.113041 0.203335 2152 385 0 -0.00170402 0.000273491 -0.000871432 2.80177e-08 4.46164e-06 
-0.00504088 -0.0839928 0.378558 -0.0480607 -0.0862781 0.211322 2152 402 0 -0.000108533 -0.000810478 -0.00162363 1.09835e-08 1.74846e-06 
-0.0261481 -0.0312391 0.185942 -0.0480607 -0.0862781 0.211322 1861 402 0 -0.00123881 0.000583702 -4.2856e-05 2.40712e-08 3.83288e-06 
-0.0261481 -0.0312391 0.185942 -0.00392689 0.00160536 0.168689 1861 2153 0 0.00176061 -0.00067074 -0.000335012 2.976e-08 4.73926e-06 
-0.0480607 -0.0862781 0.211322 -0.0695847 -0.0573021 0.241151 402 316 0 -0.000427474 0.000242579 -0.00177985 2.37636e-08 3.78388e-06 
-0.0646752 -0.0673615 0.203515 -0.0793038 -0.0559624 0.187739 2098 988 0 4.11205e-05 -6.03501e-05 -8.65381e-05 2.42192e-09 3.85479e-07 
-0.000292205 -0.0115303 0.0602165 -0.0274309 -0.0257676 0.0924272 715 1255 0 -0.000662161 -0.000520214 -2.07842e-06 5.67279e-09 9.02954e-07 
-0.000292205 -0.0115303 0.0602165 -0.01304 -0.0303234 0.131427 715 386 0 -0.00193595 -0.000239385 -0.000406709 3.17723e-08 5.05992e-06 
-0.01304 -0.0303234 0.131427 -0.0787657 -0.0451884 0.158077 386 2169 0 -0.000429581 6.79366e-05 -0.000915451 1.9505e-08 3.10552e-06 
-0.0274309 -0.0257676 0.0924272 0.00954232 0.0148124 0.11274 1255 1606 0 -6.42502e-05 9.23208e-05 -0.000209266 6.40942e-09 1.02022e-06 
-0.0201109 -0.335852 0.0915168 -0.0952861 -0.279352 0.023089 1832 906 0 -0.00505969 -0.00128727 -0.000622039 2.88248e-08 4.59024e-06 
-0.0387137 -0.10706 0.250235 -0.0492085 -0.0211688 0.176741 1815 1197 0 0.000168071 4.16853e-05 -0.000119308 8.94899e-09 1.42453e-06 
-0.0695847 -0.0573021 0.241151 0.00894215 -0.0931185 0.174176 316 1972 0 -0.00139273 -0.000428479 -0.000633821 2.91035e-08 4.63465e-06 
-0.00466911 -0.043661 0.24714 -0.0787657 -0.0451884 0.158077 2030 2169 0 0.00111915 0.000438608 0.000139549 1.46505e-08 2.33237e-06 
-0.0793038 -0.0559624 0.187739 -0.0568154 -0.0310754 0.190022 988 1074 0 0.00086655 0.000298555 -0.00145134 1.17692e-09 1.87317e-07 
-0.0793038 -0.0559624 0.187739 0.00894215 -0.0931185 0.174176 988 1972 0 8.61336e-05 0.000118525 -4.47054e-05 8.45888e-09 1.3465e-06 
-0.0568154 -0.0310754 0.190022 -0.0468336 -0.123735 0.191359 1074 107 0 0.000197089 -0.000117454 -0.00023787 1.08733e-08 1.73091e-06 
-0.0568154 -0.0310754 0.190022 -0.0757547 -0.0516289 0.202541 1074 936 0 -0.000551556 0.000338142 -0.00100813 1.82356e-08 2.90334e-06 
0.00954232 0.0148124 0.11274 0.00226701 -0.0137306 0.097781 1606 1365 0 0.000159928 7.69296e-05 -0.000359894 9.4764e-09 1.5085e-06 
-0.0698029 -0.119244 0.126491 -0.0787657 -0.0451884 0.158077 1628 2169 0 -0.000140686 4.22235e-05 1.85939e-05 6.895e-09 1.09752e-06 
-0.0698029 -0.119244 0.126491 0.00226701 -0.0137306 0.097781 1628 1365 0 0.000399061 -0.000228409 -0.000259072 1.56583e-08 2.49288e-06 
-0.0787657 -0.0451884 0.158077 -0.115864 -0.00230767 0.114275 2169 1312 0 0.00151719 0.000520237 -0.00238843 3.07056e-08 4.88994e-06 
-0.0665204 -0.272308 0.0524024 -0.0316909 -0.266286 0.0277267 2023 1681 0 0.00010235 -1.10872e-05 2.97514e-05 3.3526e-09 5.33618e-07 
-0.0175538 -0.145975 0.178534 -0.0611996 -0.211422 0.0615165 1207 1230 0 -0.000456254 0.000382619 -0.000239129 2.44468e-08 3.89272e-06 
0.0592329 -0.0427806 0.112416 -0.0128719 -0.147365 0.090379 701 900 0 1.38534e-07 0.000239329 -0.000164611 1.85029e-08 2.94591e-06 
0.00221431 -0.174227 0.0711234 -0.0161362 -0.109286 0.13217 1319 509 0 -0.000140811 -5.83765e-05 7.22229e-05 1.17514e-08 1.87074e-06 
-0.048773 -0.101855 0.13878 -0.0492094 -0.0211669 0.176743 1521 1197 0 -5.90311e-05 -3.32896e-05 0.000130038 1.13877e-08 1.81281e-06 
-0.0516661 -0.0581419 0.246641 -0.0665468 -0.0771241 0.239946 1416 536 0 -0.000333756 -0.000729287 -0.000519034 1.88885e-09 3.00632e-07 
-0.0665468 -0.0771241 0.239946 -0.0400839 -0.112645 0.212071 536 835 0 -0.000887602 -0.000621152 -0.000471401 2.29403e-08 3.65273e-06 
-0.0400839 -0.112645 0.212071 -0.0217383 -0.0453236 0.201347 835 2058 0 -0.000163523 -0.000159531 -0.000420036 1.45905e-08 2.32283e-06 
-0.115768 -0.00229335 0.114233 -0.0357717 -0.0139719 0.144795 1312 1986 0 0.0084277 0.00259831 -0.00295491 7.22761e-08 1.15197e-05 
-0.115768 -0.00229335 0.114233 -0.017644 0.00719771 0.113554 1312 1146 0 -0.000523143 -0.000955253 -0.00223761 2.95723e-08 4.70936e-06 
0.00226714 -0.0137363 0.0977765 -0.0143335 0.00271931 0.0848714 1365 1118 0 -0.00100628 -0.000447985 -0.000139391 1.91132e-08 3.04312e-06 
-0.0212306 -0.0710631 0.0920893 -0.0468262 -0.12375 0.19135 2128 107 0 -0.000693696 0.000934998 0.000874927 2.79065e-08 4.44393e-06 
-0.0212306 -0.0710631 0.0920893 -0.0143335 0.00271931 0.0848714 2128 1118 0 -0.000236783 -0.000350632 0.000797142 8.84924e-09 1.40865e-06 
-0.0212306 -0.0710631 0.0920893 -0.070256 -0.00821881 0.112931 2128 956 0 -0.000158908 -0.000664432 -0.00205995 4.24765e-08 6.76606e-06 
-0.0308161 -0.329536 -0.101918 -0.0565678 -0.280365 -0.0494711 1382 1804 0 -0.000897557 0.00110299 -0.000422349 2.15321e-08 3.42842e-06 
0.0601166 -0.156809 -0.0337377 0.0295841 -0.190968 0.0600597 1035 117 0 -0.00159854 -0.000613131 0.000896073 1.84075e-08 2.93073e-06 
0.0601166 -0.156809 -0.0337377 -0.0316909 -0.266286 0.0277267 1035 1681 0 0.000237831 -0.00106701 -0.000151195 1.35612e-08 2.15891e-06 
-0.0316909 -0.266286 0.0277267 -0.0502823 -0.291609 0.0396414 1681 1561 0 -1.8813e-05 -1.1171e-05 -5.14432e-05 7.45923e-09 1.18735e-06 
-0.0371748 -0.117036 0.193133 0.00320051 -0.0896582 0.16989 368 1649 0 0.000893543 -0.0012414 -0.000524668 2.765e-08 4.40306e-06 
-0.0371748 -0.117036 0.193133 -0.0346664 -0.209045 0.0939726 368 1867 0 -0.000214545 1.09344e-05 0.000116401 1.59073e-08 2.53253e-06 
0.00320051 -0.0896582 0.16989 -0.0621196 -0.069517 0.12595 1649 1039 0 0.0012277 -0.00203992 -0.00181945 3.41626e-08 5.44085e-06 
-0.0661184 -0.0477268 0.229265 -0.0739455 -0.0757603 0.163285 1718 1215 0 0.00016962 0.000616251 -0.000963583 7.80117e-09 1.24179e-06 
-0.0145483 -0.0703688 0.206296 -0.0607886 -0.167672 0.218524 1302 641 0 -6.8023e-05 -0.0021991 -0.00163664 1.74893e-08 2.78448e-06 
-0.0859307 -0.0367134 0.222461 -0.0757555 -0.051619 0.202537 1838 936 0 0.000495255 0.000160515 0.000785887 2.39558e-08 3.8145e-06 
-0.0859307 -0.0367134 0.222461 -0.0992276 -0.0179486 0.207099 1838 887 0 -0.00147299 7.11904e-05 4.96547e-05 2.29524e-08 3.65465e-06 
-0.0859307 -0.0367134 0.222461 -0.0618515 0.0101388 0.138036 1838 972 0 9.57645e-05 -0.000259849 -0.000228363 1.83206e-08 2.91688e-06 
-0.0859307 -0.0367134 0.222461 -0.00553252 -0.106752 0.208112 1838 623 0 2.13265e-05 -4.26842e-06 3.88351e-05 1.60324e-09 2.55172e-07 
-0.0618515 0.0101388 0.138036 -0.00727464 -0.0134172 0.140181 972 1111 0 -0.00124888 0.0007946 -0.00376201 5.53939e-08 8.82594e-06 
-0.0714876 -0.0110307 0.100171 -0.0143335 0.00271931 0.0848714 1893 1118 0 0.00435714 0.000798787 0.00234152 4.36787e-08 6.95773e-06 
-0.0714876 -0.0110307 0.100171 -0.070256 -0.00821881 0.112931 1893 956 0 -0.00273965 8.01187e-05 -0.00241036 4.5611e-08 7.26582e-06 
-0.0714876 -0.0110307 0.100171 -0.0228103 0.0279656 0.0935811 1893 2079 0 0.00113775 0.000501701 -0.000785364 1.40009e-08 2.22894e-06 
-0.118319 -0.306956 -0.13217 0.00179281 -0.32562 -0.148146 1471 2164 0 0.00467978 0.00124911 0.000669532 1.76029e-08 2.80257e-06 
-0.0565678 -0.280365 -0.0494711 -0.0459961 -0.287178 -0.0951409 1804 2024 0 0.00456954 -0.00655207 -0.00353641 6.67136e-08 1.06319e-05 
-0.0134217 -0.293434 0.12106 0.0340625 -0.245828 0.0531416 592 2097 0 6.1312e-05 0.00139672 -0.0037388 6.49139e-09 1.03327e-06 
-0.0267919 -0.19732 0.0457248 -0.0346664 -0.209045 0.0939726 132 1867 0 -4.95547e-06 -4.76786e-06 8.07923e-09 5.46787e-09 8.70333e-07 
-0.0128719 -0.147365 0.090379 0.0174505 -0.242488 0.02984 900 1865 0 -7.16943e-05 0.00159476 -0.00210175 4.25958e-08 6.78508e-06 
0.0109179 -0.171222 0.16819 -0.00225825 -0.126884 0.120842 1584 980 0 0.000338009 -0.000266715 -0.0001422 8.48334e-09 1.35039e-06 
0.0109179 -0.171222 0.16819 -0.00182011 -0.138073 0.14809 1584 150 0 -0.000188116 2.83178e-05 -0.000143767 2.25892e-09 3.59534e-07 
-0.00291134 -0.160764 0.0617292 -0.00182011 -0.138073 0.14809 919 150 0 -0.000911841 0.000615311 0.000340761 1.68931e-08 2.68952e-06 
-0.0739455 -0.0757603 0.163285 -0.0621196 -0.069517 0.12595 1215 1039 0 -0.000936642 -0.000700595 -0.000311546 1.65149e-08 2.62929e-06 
-0.0217383 -0.0453236 0.201347 -0.0387737 -0.0226767 0.191329 2058 518 0 0.000843436 -0.000684407 5.35712e-05 2.8453e-08 4.53101e-06 
-0.0217383 -0.0453236 0.201347 -0.00553252 -0.106752 0.208112 2058 623 0 -0.000763081 9.13125e-05 -5.32826e-05 2.10396e-08 3.34995e-06 
-0.017644 0.00719771 0.113554 -0.0228103 0.0279656 0.0935811 1146 2079 0 0.00022946 -0.00108048 -0.0011974 2.92303e-08 4.65485e-06 