ITEM: TIMESTEP
19000000
ITEM: NUMBER OF ENTRIES
1046
ITEM: BOX BOUNDS ff ff ff
-0.01 0.45
-0.15 0.15
-0.08 0.1
ITEM: ENTRIES c_ppc[1] c_ppc[2] c_ppc[3] c_ppc[4] c_ppc[5] c_ppc[6] c_ppc[7] c_ppc[8] c_ppc[9] c_ppc[10] c_ppc[11] c_ppc[12] c_ppc[13] c_ppc[14] 
-1.2974e-10 -1.32674e-10 1.09065e-12 1.18337e-10 -4.34377e-11 -1.21677e-12 665 23 0 -0.319427 -1.35432 -0.226245 2.37287e-06 0.000397393 
-0.483886 -1.27148 -0.234698 -2.33354 0.342511 -5.81882 718 1980 0 -0.545916 -0.206091 -0.784424 9.45136e-07 0.000153363 
0.421583 0.348869 1.03836 -3.47215 3.71922 -9.29498 1990 1377 0 -0.15339 -0.196623 -0.677539 1.10735e-07 1.76631e-05 
-3.48948 0.372856 -1.3859 -2.57276 -0.397409 -0.634884 618 1587 0 -0.00275071 6.7248e-05 0.00302462 8.1747e-08 1.30317e-05 
0.0690835 0.118415 -0.135197 0.587724 0.0392149 -1.60491 1865 359 0 -0.00545179 0.00814543 0.000196645 3.14041e-08 5.00124e-06 
0.0690835 0.118415 -0.135197 0.0407676 0.464724 -0.468031 1865 701 0 -0.0155859 -0.0057055 -0.0103253 1.26265e-07 2.01464e-05 
-0.0850673 -0.122656 -0.229454 -0.236901 -0.326932 0.0928433 2126 2215 0 -6.8284e-05 -0.000253145 -7.81804e-05 3.20892e-08 5.11041e-06 
-0.171472 -0.183312 -0.0268914 -0.146168 -0.187525 0.0464713 958 398 0 -0.000396586 -0.000424487 0.00087871 1.28564e-08 2.04668e-06 
0.286459 0.540256 -0.443228 -0.257667 0.0452826 -0.0404027 1535 233 0 -0.00167916 -0.0176624 0.00797717 1.31489e-07 2.09821e-05 
0.0736579 -0.157522 0.0216347 0.0739146 -0.207897 -0.0887029 1268 1929 0 0.0026367 -0.00255288 -0.00243524 3.34718e-08 5.33076e-06 
0.176998 -0.162144 -0.0448828 -0.0048393 0.0875757 0.00229475 899 2091 0 -0.016184 -0.00949155 -0.00179884 1.3025e-07 2.07839e-05 
0.0757323 -0.109333 0.0401682 0.0933589 -0.129403 0.0166354 1471 2115 0 2.24687e-05 -0.000879236 0.000107337 7.46013e-09 1.18749e-06 
-0.0273616 -0.044832 0.0374958 0.078857 0.00392538 0.0252705 1082 796 0 0.00019235 -0.00276649 -0.000571592 6.22338e-08 9.91712e-06 
0.0646581 -0.0903734 0.00267828 0.0850159 -0.0694026 -0.00015968 1335 1680 0 -2.9431e-06 1.11317e-05 2.50591e-06 3.62097e-09 5.76336e-07 
-0.0346448 -0.00461636 0.00664039 0.00745148 -0.0680903 0.0341093 1594 476 0 0.000186226 -3.10572e-05 -0.000492352 1.45418e-08 2.31508e-06 
-0.0646181 0.00751203 0.0335465 -0.101038 0.0183353 0.00282011 58 935 0 -2.08395e-05 -2.09754e-05 6.41627e-06 2.67017e-09 4.24994e-07 
-0.101038 0.0183353 0.00282011 -0.0904935 0.0267219 0.00997293 935 513 0 2.41007e-05 1.86616e-05 9.17959e-05 7.81721e-09 1.24434e-06 
0.134479 -0.0921835 -0.0649643 -0.0716263 -0.126172 -0.00153175 1533 1275 0 -0.00491327 -0.00386147 -0.00290093 1.95511e-08 3.11287e-06 
0.0133483 -0.0609781 0.0273049 -0.00908775 -0.0684365 -0.00675556 121 197 0 4.36403e-07 -9.87477e-07 -3.37094e-07 7.29247e-09 1.1608e-06 
-0.00908775 -0.0684365 -0.00675556 0.000547165 -0.0726647 -0.0134056 197 1308 0 -0.000234114 -0.000208063 -0.00011871 1.24574e-08 1.98315e-06 
0.000547165 -0.0726647 -0.0134056 0.0170203 -0.0501179 0.0299242 1308 2308 0 -0.000213108 0.000346559 0.000129483 1.04289e-08 1.66016e-06 
0.000547165 -0.0726647 -0.0134056 0.0267805 -0.0627688 -0.0015965 1308 1654 0 4.75983e-05 -8.95884e-06 -7.11646e-06 1.24382e-08 1.98009e-06 
-0.087309 0.108204 -0.400037 0.0243341 0.0662968 -0.0739748 85 1352 0 0.00120738 -0.0205354 0.0116713 1.36765e-07 2.18264e-05 
-0.296316 -0.0286419 -0.120112 -0.052228 -0.109492 -0.128519 1963 1383 0 -0.00526968 0.00166517 -0.00160799 1.19214e-07 1.90188e-05 
0.0637727 0.210933 -0.063042 0.961498 0.75154 0.36444 492 598 0 0.00145603 0.0121261 -0.00352889 1.01484e-07 1.61844e-05 
0.0637727 0.210933 -0.063042 0.14865 0.493041 -0.0600515 492 333 0 -0.0171414 -0.0189455 -0.000710689 2.40621e-07 3.84811e-05 
0.171286 0.464116 -0.0619677 -0.319066 0.239923 -0.0468658 542 1910 0 0.000790031 -0.016569 -0.00238683 5.00154e-08 7.96814e-06 
0.0671351 0.546755 0.110627 -0.397099 0.654062 0.6974 1868 906 0 -0.0561725 0.0196083 -0.0543736 3.47921e-07 5.5762e-05 
-0.486206 -0.236194 -0.22943 -0.552684 0.264003 -0.736133 2123 1967 0 -0.0232968 -0.034042 -0.0442701 2.93684e-07 4.70176e-05 
-0.319066 0.239923 -0.0468658 -0.112885 0.164397 0.163162 1910 647 0 0.0241513 -0.038101 -0.0251464 2.6539e-07 4.24636e-05 
0.0264096 -0.0543248 0.0829718 0.058805 -0.0964685 0.108228 925 251 0 0.000266145 7.13668e-05 -0.00023091 1.25245e-08 1.99383e-06 
-0.873451 0.595584 -0.390394 -0.0714441 0.109592 0.131774 1108 190 0 0.0361206 -0.0853251 -0.0100209 2.1748e-07 3.4764e-05 
-0.873451 0.595584 -0.390394 0.0318615 0.02469 -0.00650895 1108 1388 0 -0.00153265 -0.0058827 0.00387941 7.89217e-08 1.25806e-05 
-0.873451 0.595584 -0.390394 -0.552684 0.264003 -0.736133 1108 1967 0 0.00287403 -0.00151803 0.0014126 1.37044e-07 2.18711e-05 
-0.873451 0.595584 -0.390394 0.00506843 -0.0843931 0.0839388 1108 771 0 0.00436701 -0.0136457 -0.00594987 7.17625e-08 1.14377e-05 
-0.552684 0.264003 -0.736133 -0.145209 0.340232 -0.586533 1967 1953 0 0.000999349 -0.00114555 0.000487917 1.29738e-07 2.07021e-05 
0.0358395 -0.0959302 0.00621539 0.0351228 -0.114127 -0.00200142 804 948 0 0.000704899 8.88009e-05 -0.000913677 1.90041e-08 3.02574e-06 
0.124724 -0.133366 0.104286 0.0701932 -0.250511 0.0674484 1382 791 0 -0.00284744 -0.00188427 -0.00602772 4.46911e-08 7.11915e-06 
-0.314935 0.330173 -0.375104 -2.32869 1.5959 0.456673 844 166 0 -0.0278627 0.056227 -0.0471055 3.39047e-07 5.433e-05 
0.0605829 -0.123825 0.0942987 -0.0114493 -0.087664 0.0837067 1582 429 0 -0.00216464 0.000873117 -0.00285892 2.61017e-08 4.15637e-06 
-0.657379 -0.619233 -1.16227 0.403507 0.427192 -2.51589 1419 1563 0 -0.0611163 0.24533 -0.157108 6.67364e-07 0.000107663 
-2.56953 1.59128 -2.60663 -0.0784013 0.283493 0.409341 838 1728 0 0.00702303 -0.103486 0.00206271 4.48963e-07 7.21045e-05 
0.0684877 -0.0109749 0.0466907 0.0446248 -0.0429048 -0.0919367 1743 1291 0 -0.000228007 -2.73429e-05 -1.99599e-05 1.70928e-08 2.72133e-06 
-0.0114493 -0.087664 0.0837067 0.00533937 -0.0359191 0.0806998 429 1700 0 -0.00164754 -0.000820249 -0.00167632 8.54505e-09 1.36022e-06 
0.00533937 -0.0359191 0.0806998 -0.0537251 0.0772636 0.116472 1700 1058 0 -0.00262764 0.00143838 -0.0026891 4.47595e-08 7.13006e-06 
-0.00377421 0.0606703 0.153851 0.0280685 -0.0237742 0.115466 795 1666 0 0.00159881 -0.000991725 -0.00116387 1.3162e-08 2.09534e-06 
0.0930404 0.0905714 0.11978 -0.000793904 0.0332643 0.0855996 987 1570 0 0.00182734 -0.0018184 -0.00319948 1.88307e-08 2.99813e-06 
0.0930404 0.0905714 0.11978 0.0552171 0.109123 0.0696353 987 1874 0 -0.00214433 0.0123016 -0.00579891 9.85169e-08 1.57103e-05 
0.00394588 0.0776095 0.0977158 -0.000793904 0.0332643 0.0855996 1592 1570 0 0.00065964 0.000745731 -0.000689634 3.2374e-08 5.15581e-06 
-0.00234761 -0.0157709 0.00675844 -0.0719591 0.232277 -0.126888 1724 2059 0 0.000672616 0.000285688 -0.000106668 1.79453e-08 2.8571e-06 
0.0552171 0.109123 0.0696353 -0.144591 0.0846044 0.140661 1874 373 0 -0.00192868 0.0188088 -0.00379859 1.46668e-07 2.34115e-05 
-0.000793904 0.0332643 0.0855996 -0.0011543 0.0768127 0.132678 1570 1152 0 0.000768842 0.000965738 -0.00189141 3.76266e-08 5.99296e-06 
0.0117043 -0.0130263 0.161225 -0.0120815 -0.00323884 0.149816 807 489 0 -0.000250016 -0.00109381 -0.00206698 2.793e-08 4.44767e-06 
-0.0514353 0.472723 -0.413619 -0.183791 1.0634 0.145111 1230 1191 0 -0.000567369 0.000611938 0.00621879 8.92831e-08 1.42352e-05 
-0.21302 -0.00249017 -0.170351 -0.0129467 0.0890409 0.230274 1481 1566 0 0.00676114 0.00662519 0.00273596 1.93951e-08 3.08801e-06 
-0.0552376 0.175565 0.0552787 -0.101292 0.258791 0.0126913 2019 1105 0 -0.00167904 0.00189131 0.00026415 1.051e-08 1.67306e-06 
-0.0552376 0.175565 0.0552787 -0.0129467 0.0890409 0.230274 2019 1566 0 0.00114536 -0.000713501 0.000285037 2.8695e-08 4.56956e-06 
-0.0552376 0.175565 0.0552787 -0.1346 0.0660256 0.0800625 2019 136 0 0.00111847 0.000511944 -5.19996e-05 2.62257e-08 4.17612e-06 
-0.144591 0.0846044 0.140661 -0.132448 0.0678036 0.0831601 373 178 0 0.0026463 0.00754946 -0.00487103 4.34159e-08 6.91584e-06 
0.141665 0.112349 0.172736 0.00466213 0.184273 0.311239 2192 1061 0 -0.00537011 0.000365998 -0.00399211 5.66816e-08 9.03135e-06 
-0.0011543 0.0768127 0.132678 -0.038161 0.0946971 0.124381 1152 984 0 0.00126966 0.00287255 -0.00216205 4.78747e-08 7.62676e-06 
-0.0011543 0.0768127 0.132678 0.00658068 0.035924 0.163798 1152 1160 0 0.000198672 -0.00443927 0.000283897 2.50876e-08 3.9948e-06 
0.0118109 0.149797 0.0851937 -0.00102191 0.142341 0.0747184 2085 1864 0 -0.00278972 -0.00280758 0.0016161 4.38548e-08 6.98581e-06 
0.0251579 -0.00232429 0.205257 0.0643821 -0.0355429 0.190176 786 1557 0 3.65731e-05 0.000115507 -6.87963e-05 1.6866e-08 2.68522e-06 
-0.0284434 0.0774268 -0.376936 -0.249025 0.103209 -0.121474 1711 1951 0 4.30513e-05 -6.99335e-05 0.000150281 3.8602e-09 6.14417e-07 
-0.0247793 0.186894 0.0851926 0.0282959 -0.0498322 0.144521 1099 1076 0 -0.00145417 -2.70706e-05 3.72403e-06 9.85747e-10 1.5689e-07 
-0.1346 0.0660256 0.0800625 -0.0187134 0.015316 0.0343341 136 1539 0 0.000160071 0.000109416 -9.95709e-06 2.76617e-09 4.40274e-07 
0.00466213 0.184273 0.311239 -0.00914699 0.069321 0.0772243 1061 1964 0 -0.00142683 -0.00666374 -0.000828126 5.72368e-08 9.11992e-06 
-0.00292128 0.0979758 -0.0363319 0.0234197 0.0651078 0.045062 1832 2006 0 -0.000897493 -0.000585285 0.000218721 1.80956e-08 2.88104e-06 
-0.00914699 0.069321 0.0772243 -0.0685662 -0.00737374 0.0848542 1964 494 0 -0.00028433 0.00014202 -5.24703e-05 1.63119e-08 2.59697e-06 
0.0234197 0.0651078 0.045062 -0.0187134 0.015316 0.0343341 2006 1539 0 -0.00146504 -0.000357321 0.00104891 1.15207e-08 1.834e-06 
0.0234197 0.0651078 0.045062 -0.0281207 0.00490495 0.0988795 2006 1046 0 0.000284608 -0.00136306 -0.00331532 3.97392e-08 6.3297e-06 
-0.038161 0.0946971 0.124381 -0.0187134 0.015316 0.0343341 984 1539 0 0.0028375 0.00369409 -0.00162005 5.97652e-08 9.52327e-06 
-0.038161 0.0946971 0.124381 0.0215582 0.0372523 0.094381 984 295 0 -0.00182779 -0.000367743 -0.00138567 4.13062e-08 6.5795e-06 
0.00658068 0.035924 0.163798 -0.0120815 -0.00323884 0.149816 1160 489 0 -0.000407665 -0.0120969 0.00165393 9.56871e-08 1.52582e-05 
0.00658068 0.035924 0.163798 -0.00141874 -0.0120152 0.0601759 1160 1960 0 -3.99872e-05 0.00407674 -0.00196754 3.96346e-08 6.31303e-06 
0.00658068 0.035924 0.163798 -0.0281207 0.00490495 0.0988795 1160 1046 0 -0.000216226 0.000807169 -0.000460767 1.38246e-08 2.20086e-06 
0.0282959 -0.0498322 0.144521 0.0383792 0.0225532 0.0703598 1076 1366 0 0.00045835 0.000852853 0.000261568 2.83628e-09 4.51434e-07 
0.0282959 -0.0498322 0.144521 0.0772097 -0.165425 0.0533123 1076 1634 0 0.00143784 -0.00131978 -0.00531398 4.53998e-08 7.23214e-06 
0.0321606 -0.0404142 -0.0274443 0.0566421 0.0307547 0.0331605 7 483 0 0.000371614 0.000887498 -0.000128672 3.77415e-09 6.0072e-07 
0.0321606 -0.0404142 -0.0274443 -0.0020201 -0.098489 0.053606 7 72 0 -0.00637839 -0.00342373 -0.00197171 6.56722e-08 1.04657e-05 
0.0743038 0.111585 0.0748219 0.0192827 -0.0190771 -0.00610125 627 410 0 -0.00136483 -0.0175554 0.000952832 9.75875e-08 1.55618e-05 
0.0142596 0.175276 0.0724782 -0.00385015 0.0254555 0.133767 2204 226 0 -2.90896e-05 -0.00172788 -0.000722502 9.36339e-09 1.49051e-06 
0.0192827 -0.0190771 -0.00610125 -0.00302064 -0.0428253 0.0304485 410 514 0 -0.000716591 0.00182461 -0.00112919 4.70873e-08 7.50121e-06 
-0.0187134 0.015316 0.0343341 0.0383792 0.0225532 0.0703598 1539 1366 0 0.00145181 0.0022222 -0.00364338 5.7815e-08 9.21215e-06 
-0.0281207 0.00490495 0.0988795 -0.00141874 -0.0120152 0.0601759 1046 1960 0 0.000440641 -0.00039764 -0.000986669 6.82208e-09 1.08592e-06 
0.0215582 0.0372523 0.094381 -0.00141874 -0.0120152 0.0601759 295 1960 0 0.000232691 -7.26487e-05 -0.000362174 1.12877e-08 1.7969e-06 
0.0215582 0.0372523 0.094381 0.0400201 -0.0523474 0.0489158 295 909 0 -0.000791896 0.000497365 -0.00211835 3.49137e-08 5.56055e-06 
-0.0215171 0.0655367 0.0747808 0.0117723 -0.0178498 0.156004 170 2212 0 0.000884174 -0.00209094 -0.000712028 2.48984e-08 3.96467e-06 
-0.0904965 0.0672052 0.157208 -0.056163 0.0432015 0.0896074 1877 818 0 -0.000982234 0.000493779 0.000144428 4.51643e-08 7.1946e-06 
-0.0904965 0.0672052 0.157208 0.00856814 0.0119669 0.107311 1877 1009 0 0.000331309 0.000262128 -0.000285314 6.5522e-09 1.04295e-06 
0.0421988 -0.119892 -0.00862 0.0210995 -0.0987275 0.00839953 725 2287 0 -1.94731e-05 0.000206507 0.000168727 8.57837e-09 1.36552e-06 
-0.00421099 -0.112819 0.000457004 -0.0668784 0.0860633 0.0174607 1485 671 0 -0.000731054 -0.00166429 -0.00182243 5.671e-09 9.0267e-07 
-0.0020201 -0.098489 0.053606 0.0148659 -0.0189909 0.0362519 72 2134 0 0.00299387 -0.00260815 -0.00125009 4.65077e-08 7.40879e-06 
0.0383792 0.0225532 0.0703598 0.0148659 -0.0189909 0.0362519 1366 2134 0 -0.00397993 -0.000774665 -5.76439e-05 3.44547e-08 5.4874e-06 
0.0383792 0.0225532 0.0703598 -0.00302064 -0.0428253 0.0304485 1366 514 0 0.00362488 -0.000330388 -0.00217501 5.65558e-08 9.01128e-06 
-0.0385276 -0.0460155 -0.0487899 0.0320941 0.00481104 0.0841885 1136 2315 0 0.000155639 1.61754e-05 -0.000198907 5.02577e-09 7.99956e-07 
-0.00385015 0.0254555 0.133767 0.0152449 0.00579849 0.0435436 226 572 0 -0.000323766 0.000188608 -0.00228 1.03046e-08 1.64036e-06 
-0.00141874 -0.0120152 0.0601759 0.0320941 0.00481104 0.0841885 1960 2315 0 0.000325843 0.00160167 -0.00215146 3.93998e-08 6.2756e-06 
-0.00141874 -0.0120152 0.0601759 0.019893 -0.0132164 0.06077 1960 1894 0 -1.12061e-05 1.59087e-05 -7.80703e-05 8.25509e-09 1.31405e-06 
0.00856814 0.0119669 0.107311 0.019893 -0.0132164 0.06077 1009 1894 0 0.00141961 0.00039441 -0.000130416 7.93133e-09 1.26251e-06 
0.00856814 0.0119669 0.107311 -0.0156713 -0.0558363 0.133741 1009 2021 0 0.000176947 -0.00112189 -0.000419221 1.32031e-08 2.1019e-06 
0.0385377 -0.0823038 -0.151405 0.0210995 -0.0987275 0.00839953 436 2287 0 0.00206844 -0.00203931 0.00127448 4.36155e-08 6.94765e-06 
0.0210995 -0.0987275 0.00839953 0.0251994 -0.0777442 0.0477177 2287 815 0 0.000449848 -0.00199342 4.83031e-05 3.55764e-08 5.66617e-06 
0.0210995 -0.0987275 0.00839953 -0.0418754 -0.0245319 -0.00157767 2287 274 0 -3.95192e-05 -1.43022e-05 -0.000240381 2.20917e-08 3.51756e-06 
0.0148659 -0.0189909 0.0362519 -0.0323566 -0.0151211 -0.00367967 2134 1024 0 -0.00140271 0.00170055 -0.00112622 1.16155e-08 1.84909e-06 
0.0148659 -0.0189909 0.0362519 0.0110583 -0.14641 0.107859 2134 1432 0 -0.0027951 -0.000192762 -7.02326e-05 1.72694e-08 2.74946e-06 
0.00245945 0.0423799 0.134127 0.0320941 0.00481104 0.0841885 175 2315 0 -0.00101508 -0.000985037 0.000674661 3.7203e-08 5.92544e-06 
0.0320941 0.00481104 0.0841885 -0.00381355 -0.00446655 0.0598284 2315 760 0 -0.00132604 -0.0015905 -0.00293296 3.50284e-08 5.57884e-06 
0.019893 -0.0132164 0.06077 -0.0224893 -0.0346878 0.128687 1894 961 0 0.000555144 -0.000328118 0.000471682 2.04251e-08 3.25207e-06 
0.019893 -0.0132164 0.06077 -0.0190287 -0.04818 0.163563 1894 2257 0 -0.0024629 -0.000435871 0.00101598 1.94612e-08 3.09854e-06 
0.019893 -0.0132164 0.06077 -0.00381355 -0.00446655 0.0598284 1894 760 0 0.000902503 0.00300597 -0.00184829 4.68046e-08 7.45614e-06 
0.019893 -0.0132164 0.06077 -0.0238911 -0.0947263 0.048938 1894 985 0 -0.000227716 3.00108e-05 -9.4356e-05 1.11994e-08 1.78284e-06 
-0.0446876 -0.0707307 0.0969588 -0.0224893 -0.0346878 0.128687 1511 961 0 -0.000331379 -0.0001015 0.000389971 1.92095e-08 3.05845e-06 
-0.0156713 -0.0558363 0.133741 -0.0163901 0.010151 0.112513 2021 952 0 -0.000344328 -4.45324e-06 5.21243e-05 1.06745e-08 1.69926e-06 
-0.0156713 -0.0558363 0.133741 -0.0198971 -0.00340739 0.123945 2021 294 0 0.000921074 -0.000707421 -0.00204287 3.05382e-08 4.86326e-06 
0.0375649 -0.182984 0.0586565 0.0648418 -0.0195811 -0.183214 1207 1926 0 -0.00156883 -0.00108989 -0.00165907 4.30947e-08 6.86463e-06 
0.0648418 -0.0195811 -0.183214 0.0457935 -0.00286974 -0.0880845 1926 1815 0 -0.000921517 3.91776e-05 0.000995565 3.69174e-08 5.87991e-06 
-0.11616 0.110961 -0.0619062 -0.142552 0.0892381 -0.115994 1290 487 0 0.000157313 -0.000282911 -0.00100437 2.75743e-09 4.38883e-07 
-0.0113194 -0.0531259 0.00221418 0.0772284 -0.165416 0.0533671 2089 1634 0 0.00163754 -0.000325825 0.00572637 4.43681e-08 7.06764e-06 
-0.0113194 -0.0531259 0.00221418 -0.00972226 -0.033989 -0.0102209 2089 189 0 0.000267643 -0.000817955 -0.00128466 1.49903e-08 2.38649e-06 
-0.00972226 -0.033989 -0.0102209 -0.0323618 -0.0151235 -0.00367481 189 1024 0 0.00098293 -0.0001944 7.04314e-05 2.89053e-08 4.60308e-06 
-0.00972226 -0.033989 -0.0102209 -0.0669933 -0.00918275 0.0719865 189 1271 0 -0.00115621 -0.000722174 0.00146381 1.76236e-08 2.80587e-06 
-0.0498436 -0.0891096 0.0257176 0.0252236 -0.077755 0.0477535 846 815 0 0.00117581 0.00110528 0.00234715 2.92944e-08 4.66507e-06 
-0.0498436 -0.0891096 0.0257176 -0.00298707 -0.0428077 0.0304376 846 514 0 -6.09402e-05 -0.000949281 0.00130737 3.98901e-08 6.35375e-06 
-0.0498436 -0.0891096 0.0257176 -0.0323618 -0.0151235 -0.00367481 846 1024 0 -0.000741678 -6.32962e-06 -0.00013457 2.58874e-08 4.12223e-06 
-0.0498436 -0.0891096 0.0257176 -0.0967837 -0.0656829 0.00336579 846 976 0 -0.000679958 0.000248004 4.89751e-05 1.01497e-08 1.61571e-06 
-0.0506548 -0.0629675 0.060747 -0.0669933 -0.00918275 0.0719865 1324 1271 0 0.00458562 0.00822501 -0.0029615 8.15946e-08 1.30073e-05 
-0.0304696 0.00499661 0.0425224 -0.00298707 -0.0428077 0.0304376 1288 514 0 -0.000596587 0.000466116 0.00127132 3.96072e-08 6.30865e-06 
-0.0182949 0.0516205 0.0615566 -0.0366859 -0.0667623 0.06398 15 2299 0 0.000820144 -0.000755199 -0.000868516 2.34952e-08 3.74112e-06 
-0.0182949 0.0516205 0.0615566 -0.0141306 0.0227772 0.0511474 15 2291 0 0.000276206 6.61275e-05 -0.000822306 1.81733e-08 2.89342e-06 
-0.00380201 -0.00445308 0.0598226 -0.0357877 -0.020006 0.0636409 760 609 0 0.00163524 0.00269778 -0.00258764 5.5179e-08 8.79167e-06 
-0.00380201 -0.00445308 0.0598226 -0.0313586 -0.0460361 0.0653922 760 924 0 -0.0012874 -0.000215598 -0.00258322 3.42678e-08 5.45761e-06 
-0.0238703 -0.0947196 0.0489333 0.0400064 -0.0523422 0.0489147 985 909 0 -0.000127031 -0.0003166 0.00204422 3.25582e-08 5.18517e-06 
-0.0238703 -0.0947196 0.0489333 -0.0313586 -0.0460361 0.0653922 985 924 0 0.0012899 0.000960976 -0.00245279 4.13605e-08 6.58815e-06 
-0.117087 -0.0356868 -0.175404 -0.044131 -0.0156833 -0.0497897 385 2152 0 0.00568966 -0.00423282 -0.00351988 7.53165e-08 1.2005e-05 
0.0870262 -0.0472753 0.0385537 0.0171767 -0.0249243 0.0259026 1858 957 0 -0.000222887 0.000316299 0.000455509 1.12144e-08 1.78522e-06 
-0.0304169 -0.0584292 -0.028159 -0.0417564 -0.0468349 0.00667478 629 1919 0 -0.000652383 0.0013975 -0.000895829 6.55618e-09 1.04359e-06 
-0.0304169 -0.0584292 -0.028159 0.000457033 -0.0468617 0.0986566 629 2269 0 -0.000118335 -0.00190046 0.00158782 2.86399e-08 4.56078e-06 
-0.0304169 -0.0584292 -0.028159 0.0230903 -0.0760209 -0.0272382 629 330 0 0.0015703 0.000658031 0.00158315 5.81106e-09 9.24966e-07 
-0.0967837 -0.0656829 0.00336579 -0.0138286 -0.100335 -0.0597991 976 2261 0 4.40658e-05 -9.38413e-05 1.86876e-05 4.5974e-09 7.31765e-07 
-0.0669933 -0.00918275 0.0719865 -0.00325979 0.108345 0.0548305 1271 42 0 0.000133 0.00398834 0.0106809 9.93194e-08 1.58385e-05 
-0.0669933 -0.00918275 0.0719865 0.0171767 -0.0249243 0.0259026 1271 957 0 0.000913523 -0.00100595 -0.00778537 4.36205e-08 6.94846e-06 
-0.0669933 -0.00918275 0.0719865 -0.0552645 0.065868 -0.0189509 1271 1234 0 0.00124486 -0.000429256 -0.00359754 2.86911e-08 4.56894e-06 
0.000457033 -0.0468617 0.0986566 0.0024652 0.0423818 0.134133 2269 175 0 -0.000628481 -0.00101997 0.00104817 2.97745e-08 4.74157e-06 
0.000457033 -0.0468617 0.0986566 -0.0677027 0.0783891 0.0669222 2269 1803 0 -0.000356169 8.54746e-06 -0.000739976 1.47601e-08 2.34984e-06 
-0.0141306 0.0227772 0.0511474 0.0148243 -0.012216 0.0745283 2291 736 0 0.00331772 9.57819e-05 -0.00142254 4.24003e-08 6.75392e-06 
-0.0366859 -0.0667623 0.06398 -0.0446932 -0.070736 0.0969888 2299 1511 0 -0.000705665 -0.000617736 0.00239955 2.43873e-08 3.88324e-06 
-0.0366859 -0.0667623 0.06398 -0.0561808 -0.0741989 0.0823745 2299 2256 0 -0.000459528 -0.000590847 -0.000264987 1.37391e-08 2.18725e-06 
-0.0366859 -0.0667623 0.06398 0.0148243 -0.012216 0.0745283 2299 736 0 -0.00363968 0.00369133 0.000122633 1.77889e-08 2.83219e-06 
-0.0351829 -0.0903562 0.104607 -0.0561808 -0.0741989 0.0823745 787 2256 0 0.00101256 0.00118751 -0.00159382 3.17457e-08 5.05567e-06 
-0.036681 -0.016896 0.0578423 -0.0423048 -0.0352558 0.0441008 1426 228 0 -0.00383133 0.00198829 0.000380652 5.41443e-08 8.62664e-06 
-0.036681 -0.016896 0.0578423 0.038763 0.00337318 0.0753314 1426 2233 0 0.0023377 -0.00015008 -0.0024342 4.06488e-08 6.4747e-06 
-0.0199102 -0.00338634 0.123951 0.0188316 0.0178445 0.146738 294 1531 0 -0.000525293 0.00194823 -0.0016579 3.19408e-08 5.08678e-06 
0.0412176 0.249949 -0.157061 -0.0110616 0.146785 -0.190839 1443 2044 0 -0.00298256 -0.00538193 -0.00494309 4.76921e-08 7.59765e-06 
0.0171767 -0.0249243 0.0259026 -0.0417564 -0.0468349 0.00667478 957 1919 0 0.00163529 -0.00116139 0.000162563 4.14694e-08 6.60552e-06 
0.0171767 -0.0249243 0.0259026 0.00432041 -0.0333017 0.0504114 957 563 0 -0.00109569 0.00140307 -0.00305998 4.95182e-08 7.88884e-06 
-0.0417564 -0.0468349 0.00667478 -0.0357877 -0.020006 0.0636409 1919 609 0 -0.000423157 -0.000673436 0.000177007 2.64825e-08 4.21705e-06 
-0.0372315 -0.0300854 0.0525648 -0.032828 -0.073753 0.00976918 1482 1748 0 -0.000739853 1.08026e-05 -0.000509997 1.6758e-08 2.66801e-06 
-0.0372315 -0.0300854 0.0525648 -0.0063188 -0.0723377 -0.0212552 1482 1327 0 0.00220663 0.000372373 0.00100047 7.91991e-09 1.26069e-06 
-0.0357877 -0.020006 0.0636409 -0.0313586 -0.0460361 0.0653922 609 924 0 -0.00316714 -0.00184381 0.00111687 4.42999e-08 7.05677e-06 
-0.0357877 -0.020006 0.0636409 -0.0677027 0.0783891 0.0669222 609 1803 0 0.00428608 0.00287832 -0.00465747 7.26976e-08 1.1587e-05 
-0.0357877 -0.020006 0.0636409 -0.0239211 0.0216114 0.0772043 609 204 0 -3.31088e-06 0.000135833 0.00020083 1.1201e-08 1.78308e-06 
-0.0207581 -0.0544743 0.0710875 0.0148243 -0.012216 0.0745283 1083 736 0 -0.00043037 0.000154135 0.000108362 1.52139e-08 2.4221e-06 
0.0148243 -0.012216 0.0745283 0.0127822 -0.0557385 0.0547463 736 250 0 0.0042477 0.00112888 -0.00155267 5.86963e-08 9.35275e-06 
-0.0313586 -0.0460361 0.0653922 -0.0354119 -0.0118836 0.0498181 924 1428 0 -0.00136181 -0.000995432 -0.00370555 4.9281e-08 7.85102e-06 
-0.0561808 -0.0741989 0.0823745 -0.0398098 -0.0625554 0.154237 2256 371 0 0.000558037 -0.000451744 0.000276711 1.63499e-08 2.60302e-06 
0.00141163 -0.0538165 0.0491586 -0.0132196 0.0303203 0.0626876 1398 312 0 0.000283964 0.000348551 -0.00108232 2.73489e-08 4.35508e-06 
0.0255921 -0.0713875 0.191372 0.0294673 -0.0432724 0.128374 1389 881 0 0.00439122 0.00364127 -0.00379949 5.23556e-08 8.34134e-06 
0.00248896 -0.0440526 -0.00150135 -0.000604591 -0.0711146 -0.041802 1455 2098 0 -3.95092e-05 7.50321e-06 1.19878e-05 3.8744e-09 6.16678e-07 
0.00248896 -0.0440526 -0.00150135 -0.0324953 -0.0458938 -0.0289643 1455 1197 0 0.000465918 -0.000541215 0.000270484 1.08743e-08 1.73107e-06 
0.00248896 -0.0440526 -0.00150135 -0.00720269 -0.0177107 -0.00474586 1455 316 0 -0.000178053 0.000194814 -0.00028192 4.82648e-09 7.68232e-07 
0.00379075 -0.112268 -0.0490831 -0.0063188 -0.0723377 -0.0212552 1624 1327 0 -0.000166147 0.000431444 -2.2885e-05 8.92001e-09 1.41992e-06 
-0.032828 -0.073753 0.00976918 0.05539 0.00850481 0.0196487 1748 1285 0 0.000317715 0.000857096 -0.0014088 2.57688e-08 4.10333e-06 
-0.0063188 -0.0723377 -0.0212552 0.0127822 -0.0557385 0.0547463 1327 250 0 -7.46649e-05 0.000223636 9.23548e-05 7.83085e-09 1.24651e-06 
-0.0677027 0.0783891 0.0669222 0.00993453 -0.0326425 0.0811527 1803 1283 0 0.00334447 0.00218296 -0.00591832 7.78529e-08 1.24099e-05 
-0.0239211 0.0216114 0.0772043 -0.0132196 0.0303203 0.0626876 204 312 0 0.000394029 -0.00195473 0.000134362 3.15206e-08 5.01981e-06 
-0.0239211 0.0216114 0.0772043 -0.0296446 -0.0293728 0.0465131 204 1740 0 -0.00101103 0.00182504 -0.00127644 3.6861e-08 5.87092e-06 
-0.0398098 -0.0625554 0.154237 -0.0802828 -0.00205994 0.0593801 371 1030 0 -0.000867599 0.000346839 -0.00159487 9.57301e-10 1.52362e-07 
-0.0354119 -0.0118836 0.0498181 -0.0132196 0.0303203 0.0626876 1428 312 0 0.00191616 -0.00170348 0.00110445 2.60111e-08 4.14194e-06 
0.00412959 -0.00341929 0.0594421 0.0188316 0.0178445 0.146738 384 1531 0 -0.000525519 -0.000510989 0.00064563 1.81302e-08 2.88655e-06 
0.038763 0.00337318 0.0753314 0.0188316 0.0178445 0.146738 2233 1531 0 0.000511528 -0.00154156 0.000633277 3.2628e-08 5.19628e-06 
0.038763 0.00337318 0.0753314 -0.0132196 0.0303203 0.0626876 2233 312 0 0.000801977 0.00205609 -0.0021797 4.12586e-08 6.57191e-06 
-0.0110616 0.146785 -0.190839 -0.0324953 -0.0458938 -0.0289643 2044 1197 0 -0.00147049 -0.00378468 0.0027843 1.60592e-08 2.55672e-06 
-0.0110616 0.146785 -0.190839 -0.103121 0.295988 -0.136416 2044 980 0 0.00194795 0.00661788 -0.003929 7.6278e-08 1.21585e-05 
-0.0110616 0.146785 -0.190839 -0.0111828 0.0262912 -0.0982758 2044 2231 0 -0.00350474 -0.0071547 0.0021017 1.6255e-08 2.58789e-06 
-0.0324953 -0.0458938 -0.0289643 0.0150326 0.00773195 -0.0475286 1197 1861 0 -0.000667907 -0.000538908 -0.000649918 1.02872e-08 1.6376e-06 
-0.0111828 0.0262912 -0.0982758 0.0150326 0.00773195 -0.0475286 2231 1861 0 -0.00197261 -0.00229925 0.000371193 3.94672e-08 6.28633e-06 
-0.0171889 -0.100078 0.0219346 0.0504254 -0.158449 0.0209641 2223 26 0 -0.000188042 0.000156689 -0.000414896 1.39886e-08 2.22698e-06 
0.0150326 0.00773195 -0.0475286 0.05539 0.00850481 0.0196487 1861 1285 0 -0.00046514 -0.00358882 -0.00108913 5.59554e-08 8.91552e-06 
0.00432041 -0.0333017 0.0504114 -0.081927 -0.130467 0.061135 563 721 0 -0.00117983 0.000473791 -0.00377425 5.51291e-08 8.78372e-06 
-0.0261472 -0.00322096 0.0344788 -0.000778177 0.0192441 0.0341033 1044 118 0 2.17682e-05 -0.000556429 0.000187249 5.74403e-09 9.14294e-07 
0.00993453 -0.0326425 0.0811527 -0.0244384 -0.0840479 0.06344 1283 1138 0 0.000869098 -0.00147936 -0.00284417 1.10373e-08 1.75702e-06 
0.00993453 -0.0326425 0.0811527 0.0347872 -0.0276003 0.0102479 1283 2169 0 0.000905925 0.00517023 -0.000821726 8.85038e-09 1.40883e-06 
-0.0244384 -0.0840479 0.06344 -0.023074 -0.0297135 0.0149154 1138 2060 0 -0.000160103 -0.000816206 0.000101084 1.42836e-08 2.27395e-06 
-0.0132196 0.0303203 0.0626876 -0.0230427 0.0191583 0.0548452 312 1217 0 0.00332119 -0.000217431 -0.00180501 4.90367e-08 7.81206e-06 
-0.0132196 0.0303203 0.0626876 -0.121179 -0.00258566 0.0569632 312 1247 0 -0.00117951 -0.000747938 -0.000910586 1.81354e-08 2.88738e-06 
0.0452396 -0.0346458 0.0864227 0.0666148 0.0692823 0.0952135 5 953 0 0.00191212 0.00171604 -0.00606301 6.13252e-08 9.77214e-06 
0.0313307 -0.0442925 0.12435 0.0528278 -0.0893412 0.0720812 1779 526 0 0.00110178 0.000837407 -0.000838924 2.61278e-08 4.16054e-06 
-0.103121 0.295988 -0.136416 0.0211139 -0.0299604 0.0368323 980 1326 0 0.000230025 -0.000181372 -0.000410969 2.24127e-08 3.56869e-06 
0.00235406 0.0427141 -0.0585396 0.05539 0.00850481 0.0196487 2153 1285 0 0.000978926 -0.00119566 0.00137167 7.88746e-09 1.25552e-06 
0.05539 0.00850481 0.0196487 0.0347872 -0.0276003 0.0102479 1285 2169 0 0.000372993 -0.00323464 -0.00282256 4.26203e-08 6.789e-06 
-0.000778177 0.0192441 0.0341033 -0.0802828 -0.00205994 0.0593801 118 1030 0 0.00195218 -0.000461491 -0.00120019 1.7179e-08 2.73506e-06 
-0.000778177 0.0192441 0.0341033 -0.0380623 0.0119278 0.0679757 118 1156 0 -0.000127449 -7.77843e-05 -0.000280847 1.4782e-08 2.35332e-06 
-0.0296446 -0.0293728 0.0465131 -0.0669359 -0.0580664 -0.0267121 1740 653 0 -0.000162816 0.000196387 -0.000273332 1.16294e-08 1.8513e-06 
-0.0296446 -0.0293728 0.0465131 -0.062644 -0.0138095 0.0476843 1740 1074 0 -0.00116475 0.00153729 -0.00155882 3.03202e-08 4.82852e-06 
-0.0802828 -0.00205994 0.0593801 -0.0888937 -0.037751 0.0815676 1030 2031 0 0.000693125 -0.0018625 0.000431591 1.7561e-08 2.7959e-06 
-0.023074 -0.0297135 0.0149154 -0.0230427 0.0191583 0.0548452 2060 1217 0 -0.00360757 -0.000909305 0.000986075 5.19541e-08 8.27732e-06 
-0.023074 -0.0297135 0.0149154 -0.0888937 -0.037751 0.0815676 2060 2031 0 -0.00186267 0.00105833 -0.000510008 2.70694e-08 4.31055e-06 
-0.023074 -0.0297135 0.0149154 -0.000172794 -0.0349861 0.0937466 2060 715 0 0.00505617 -0.00111431 -0.000701904 5.82953e-08 9.28877e-06 
-0.023074 -0.0297135 0.0149154 -0.0597229 -0.13012 -0.0203663 2060 893 0 -0.001033 0.000536953 -0.000106269 5.10514e-09 8.12591e-07 
-0.0321781 0.0187378 0.0388352 -0.032802 0.00603693 0.00728844 1142 1902 0 0.000133353 0.00243552 -0.00157865 3.11766e-08 4.96499e-06 
-0.0230427 0.0191583 0.0548452 0.0233712 0.00583933 0.063063 1217 1607 0 -0.000278813 -0.00051092 -0.000645128 2.22934e-08 3.54968e-06 
0.0528278 -0.0893412 0.0720812 0.0233712 0.00583933 0.063063 526 1607 0 0.00130891 0.00111915 -0.00152506 3.37162e-08 5.36971e-06 
0.0634647 -0.0264492 0.223986 -0.0401796 -0.0780791 -0.0615983 1649 150 0 -0.000864321 -0.000682771 -0.000284786 1.31953e-08 2.10065e-06 
0.0634647 -0.0264492 0.223986 0.0356761 -0.0211275 0.00609598 1649 835 0 -0.000644055 -0.00305024 -0.00137344 4.49286e-08 7.15702e-06 
0.0634647 -0.0264492 0.223986 0.0473709 -0.21372 0.16713 1649 583 0 -0.00108163 0.000251437 -0.00358866 4.55777e-08 7.2605e-06 
0.0211139 -0.0299604 0.0368323 0.0152027 -0.0050906 -0.0236915 1326 1986 0 -0.000270487 0.000455157 0.000373638 9.89976e-10 1.57563e-07 
0.0211139 -0.0299604 0.0368323 0.0256676 -0.0274045 0.0693153 1326 762 0 0.000278576 0.000168508 -0.00027751 2.41545e-08 3.84616e-06 
0.0152027 -0.0050906 -0.0236915 0.00258618 0.0511643 -0.0702235 1986 921 0 -0.000112854 -6.85776e-05 -0.000399179 2.49274e-08 3.96928e-06 
0.0164336 -0.0718439 -0.0201268 0.0168343 -0.0564808 0.0590489 1661 936 0 -0.00151791 -0.000842902 -0.00108701 3.67984e-08 5.86094e-06 
-0.062644 -0.0138095 0.0476843 0.0168343 -0.0564808 0.0590489 1074 936 0 0.00149009 -0.000237331 -0.00337086 3.09531e-08 4.92938e-06 
0.0347872 -0.0276003 0.0102479 0.00214731 -0.0948998 -0.0179798 2169 2155 0 0.000438147 -0.000469079 -0.000166822 8.88282e-09 1.414e-06 