ITEM: TIMESTEP
18700000
ITEM: NUMBER OF ENTRIES
1135
ITEM: BOX BOUNDS ff ff ff
-0.01 0.45
-0.15 0.15
-0.08 0.1
ITEM: ENTRIES c_ppc[1] c_ppc[2] c_ppc[3] c_ppc[4] c_ppc[5] c_ppc[6] c_ppc[7] c_ppc[8] c_ppc[9] c_ppc[10] c_ppc[11] c_ppc[12] c_ppc[13] c_ppc[14] 
-1.77972e-05 -3.19789e-05 6.04011e-07 1.77274e-05 -1.69556e-06 6.50718e-08 665 23 0 -0.318994 -1.34587 -0.230293 2.36389e-06 0.000395809 
-2.39775 -0.906304 0.200923 -0.563479 -3.14079 0.0775331 1066 1091 0 0.064216 0.0196228 -0.00688596 2.85758e-07 4.57413e-05 
1.53723 -1.70739 1.98155 0.644272 -1.95003 0.466695 1777 27 0 0.000180591 0.0710092 0.0162621 3.2489e-07 5.20465e-05 
0.0245367 2.52567 -1.36505 1.19188 3.35918 -1.20976 1388 670 0 -0.0579354 0.114788 -0.0378023 3.47373e-07 5.56735e-05 
-0.48652 2.43895 -5.40495 -0.385422 2.1187 -6.36191 306 1776 0 -0.000462433 0.000539558 0.000128282 1.06649e-07 1.70099e-05 
-0.48652 2.43895 -5.40495 1.19188 3.35918 -1.20976 306 670 0 -0.000174827 0.000880254 9.12421e-05 7.77082e-08 1.23868e-05 
0.117915 4.43962 -3.02083 2.04926 0.336313 -6.29368 1158 542 0 -0.00647369 0.0161516 0.000133845 7.2773e-07 0.000117549 
-0.0593758 -0.18854 -0.00231447 -0.0277416 -0.159853 -0.062157 654 2158 0 -0.00316736 -4.95511e-05 0.000134205 5.21949e-08 8.31572e-06 
-0.0593758 -0.18854 -0.00231447 0.0275018 -0.209281 0.00871775 654 157 0 0.000121953 -0.000119334 -0.000222493 8.30578e-09 1.32212e-06 
-0.0585808 -0.215941 -0.0398318 -0.137241 -0.0468152 0.00861111 1653 1157 0 0.000485457 0.000110377 -0.00022766 5.30188e-08 8.44713e-06 
-0.220768 -0.0999506 0.099314 -0.0259464 -0.0775088 0.0388714 998 2101 0 0.00609865 -0.00455937 -0.000654837 4.58386e-08 7.3021e-06 
-1.21588 -0.214572 0.0814278 -0.644686 1.482 -4.40624 796 2280 0 0.0304347 -0.17805 -0.0720946 5.5812e-07 8.98364e-05 
-1.10582 -0.24663 -0.736686 -1.60443 0.558908 0.803117 2108 1901 0 -0.21164 -0.014974 0.158028 6.49288e-07 0.000104708 
-0.715209 0.0713993 -0.0529764 -0.627932 -0.571446 -0.276657 1445 2093 0 -0.0243908 -0.00117616 -0.0245905 2.04818e-07 3.27317e-05 
0.744058 -0.435546 -0.422926 0.496052 -0.24932 0.156406 520 2308 0 -0.000612776 -0.00121985 0.00103972 7.71491e-08 1.22976e-05 
0.513569 -0.267951 0.108499 -0.133691 -0.153107 0.854912 476 2296 0 -0.027869 -0.00114766 -0.00558809 1.26142e-07 2.01267e-05 
0.513569 -0.267951 0.108499 0.25986 -0.0279311 0.23352 476 1943 0 0.00293181 0.000619479 -0.0125158 1.60545e-07 2.56337e-05 
0.284643 -0.0021839 0.168039 -0.00369179 0.152624 0.0588975 197 529 0 -0.0105307 -0.0258918 0.0082566 2.13008e-07 3.40462e-05 
0.284643 -0.0021839 0.168039 -0.206703 0.196154 0.256902 197 1913 0 0.00035413 -0.0127003 -0.0358936 2.55286e-07 4.08384e-05 
0.0363231 -0.567376 -0.178491 -0.03141 -0.422563 0.0704186 1680 1216 0 -0.00283511 0.00333396 0.0110353 6.67435e-09 1.0624e-06 
-0.0720404 0.211662 0.0629493 0.358446 -0.381272 -0.0716151 1308 241 0 5.12476e-06 1.4002e-06 -2.25576e-06 5.01425e-08 7.9884e-06 
-0.03141 -0.422563 0.0704186 0.104414 0.245567 0.0176752 1216 1166 0 -0.0101524 0.00671804 -0.0301972 2.11068e-07 3.37347e-05 
-0.00369179 0.152624 0.0588975 0.116845 0.249394 0.00661166 529 1417 0 0.0132519 -0.0176416 -0.00447975 1.53148e-07 2.4449e-05 
-0.00369179 0.152624 0.0588975 -0.206703 0.196154 0.256902 529 1913 0 -0.0096457 0.0202731 -0.099719 4.46973e-07 7.1782e-05 
0.358446 -0.381272 -0.0716151 0.134193 -0.145659 0.0258295 241 210 0 -0.0130011 -0.0918263 -0.00630151 4.4104e-07 7.08207e-05 
0.358446 -0.381272 -0.0716151 -0.434396 0.0821908 0.0938463 241 1956 0 -0.00997933 -0.000258168 -0.00622119 3.58538e-08 5.71038e-06 
0.496052 -0.24932 0.156406 0.117946 -0.798296 -0.521567 2308 708 0 0.000167014 -0.000178242 -3.03545e-05 3.40994e-08 5.43078e-06 
0.496052 -0.24932 0.156406 0.123859 0.0705161 0.344568 2308 983 0 0.0153792 -0.00151085 -0.00513176 2.15683e-07 3.44755e-05 
0.496052 -0.24932 0.156406 -0.55492 0.350358 -0.212714 2308 1049 0 -0.00144449 0.00183306 0.00276155 3.80691e-09 6.05935e-07 
0.25986 -0.0279311 0.23352 0.112228 0.0752195 0.584197 1943 429 0 -0.00344966 -0.00886371 0.00137025 1.30561e-07 2.08337e-05 
0.25986 -0.0279311 0.23352 0.189677 -0.310605 0.204422 1943 631 0 0.00776823 0.0093671 -0.0316679 2.30092e-07 3.67894e-05 
-0.206703 0.196154 0.256902 -0.0221138 0.361238 0.129553 1913 2119 0 -0.00565127 0.00303789 -0.00368135 1.74589e-09 2.77877e-07 
-0.206703 0.196154 0.256902 0.0340081 -0.0524193 0.0326329 1913 1654 0 -0.00164845 -0.00594856 -0.00218325 4.43706e-08 7.06804e-06 
-0.206703 0.196154 0.256902 0.144807 0.0946806 0.391638 1913 804 0 -0.00635491 -0.0438929 -0.117095 5.09398e-07 8.19118e-05 
0.104414 0.245567 0.0176752 0.492231 -0.244548 -0.266533 1166 1176 0 -0.0158247 0.00428547 -0.0265393 2.00228e-07 3.19952e-05 
-0.434396 0.0821908 0.0938463 0.112228 0.0752195 0.584197 1956 429 0 -0.00211816 0.0157802 0.0160433 9.33252e-08 1.48808e-05 
-0.434396 0.0821908 0.0938463 -0.101964 0.117411 0.224399 1956 1418 0 0.000235262 -0.0125354 0.00322808 8.58445e-08 1.3686e-05 
0.0340081 -0.0524193 0.0326329 -0.059999 0.156164 0.262516 1654 168 0 -0.00505586 0.00468516 -0.00220149 6.69069e-08 1.06628e-05 
-0.479982 0.382116 0.196843 0.492231 -0.244548 -0.266533 1056 1176 0 0.00240836 -0.0529912 -0.073898 3.00986e-07 4.81938e-05 
-0.298256 0.624374 -0.266013 -0.55492 0.350358 -0.212714 602 1049 0 0.00761773 0.00820283 0.0125753 1.27669e-07 2.0371e-05 
-0.298256 0.624374 -0.266013 -0.059999 0.156164 0.262516 602 168 0 -0.0187692 -0.0528881 -0.0165447 2.89724e-07 4.63799e-05 
-0.059999 0.156164 0.262516 -0.137554 -0.0333713 0.248885 168 962 0 -0.0101823 -0.0184826 0.000959123 6.02519e-08 9.60091e-06 
-0.00861962 -0.409972 -0.0641682 0.0329984 -0.129704 -0.00754083 1194 1862 0 -0.0139626 -0.00142228 -0.0323034 2.23694e-07 3.57619e-05 
0.113678 -0.045992 0.132162 0.0329984 -0.129704 -0.00754083 1090 1862 0 0.00226897 -0.00291734 0.00213349 3.51194e-09 5.58981e-07 
0.321489 -0.554389 0.0453064 0.118625 0.0140183 0.163983 1568 1765 0 0.00129463 0.00157737 -0.0019666 1.20331e-07 1.91974e-05 
0.321489 -0.554389 0.0453064 0.310255 -0.372706 0.0222659 1568 852 0 0.00486013 -0.0120915 -0.0111483 3.26618e-08 5.20167e-06 
0.189677 -0.310605 0.204422 -0.0539457 -0.327684 0.173901 631 2080 0 -0.00410522 0.00514827 -0.00672441 2.75323e-09 4.38215e-07 
-0.55492 0.350358 -0.212714 0.40989 0.477047 0.064072 1049 1885 0 -0.000695771 -0.00201527 -0.0199044 2.0083e-07 3.20918e-05 
0.325257 -0.204978 0.25287 0.492231 -0.244548 -0.266533 2012 1176 0 0.0120189 -0.0504145 -0.00701289 2.81843e-07 4.51111e-05 
0.325257 -0.204978 0.25287 0.232536 -0.0166999 0.0333669 2012 1756 0 0.0024239 -0.00472365 -0.0117381 1.44278e-08 2.29692e-06 
0.492231 -0.244548 -0.266533 0.573532 -0.723436 -0.177512 1176 1570 0 0.0840599 -0.054255 -0.0460878 4.14324e-07 6.64945e-05 
0.492231 -0.244548 -0.266533 0.401923 -0.0124895 0.0282658 1176 447 0 -0.0684722 -0.0404561 -0.00961987 3.75321e-07 6.01871e-05 
0.144807 0.0946806 0.391638 0.556006 -0.115803 0.0612084 804 930 0 -0.00625054 0.028427 -0.0458365 2.81358e-07 4.5033e-05 
0.144807 0.0946806 0.391638 0.0154698 0.0459364 0.227237 804 1665 0 0.00846904 -0.0987591 -0.03575 4.26545e-07 6.84728e-05 
0.0329984 -0.129704 -0.00754083 0.535266 0.29805 0.12976 1862 2090 0 -0.0071826 0.00800083 -0.0289202 2.44606e-07 3.91215e-05 
0.412666 -0.965962 0.0603186 0.532195 0.250931 0.126758 527 1759 0 0.0410617 -0.00905455 -0.0933725 4.63973e-07 7.45381e-05 
0.310255 -0.372706 0.0222659 0.532195 0.250931 0.126758 852 1759 0 -0.0297562 0.0285277 -0.0137845 1.85516e-07 2.96356e-05 
0.118625 0.0140183 0.163983 0.00143585 0.284903 0.210727 1765 1739 0 -0.000845032 -0.0040149 -0.0203852 1.33133e-07 2.12453e-05 
0.232536 -0.0166999 0.0333669 0.428175 -0.000604485 0.128363 1756 1152 0 -0.000617694 -0.00734852 -0.004399 1.06249e-07 1.69459e-05 
0.40989 0.477047 0.064072 0.0326206 0.204573 -0.0951102 1885 235 0 0.0163318 0.0107911 -0.0123556 1.80618e-07 2.88504e-05 
0.40989 0.477047 0.064072 0.325043 0.298295 0.244776 1885 264 0 -0.0429293 -0.0302689 -0.00138525 1.87802e-07 3.00022e-05 
-0.0539457 -0.327684 0.173901 0.573532 -0.723436 -0.177512 2080 1570 0 -0.0193408 -0.0353289 0.0168515 2.73496e-07 4.37677e-05 
-0.0539457 -0.327684 0.173901 0.658741 -0.388724 0.0653303 2080 1141 0 0.0174813 0.0257408 -0.019736 1.70205e-07 2.71813e-05 
0.556006 -0.115803 0.0612084 0.0553132 0.477327 -0.0984559 930 415 0 -0.00391218 0.0315437 -0.0217224 1.42028e-07 2.26686e-05 
-0.178977 0.327268 -0.408544 -0.534666 -0.229928 0.21549 1582 606 0 -0.00117666 -0.013986 -0.00140911 4.54357e-08 7.23787e-06 
0.573532 -0.723436 -0.177512 0.324048 -0.369374 -0.697712 1570 2216 0 0.0457246 -0.0824843 -0.016471 4.89098e-07 7.8615e-05 
-0.534666 -0.229928 0.21549 -0.253413 -0.247137 -0.17971 606 795 0 -0.0328076 -0.0343444 0.00877021 2.93934e-07 4.70579e-05 
-0.534666 -0.229928 0.21549 -0.261941 -0.0176332 0.259099 606 793 0 0.0289177 -0.00223197 0.00284285 1.39322e-07 2.22356e-05 
-0.534666 -0.229928 0.21549 -0.254712 -0.116992 0.356021 606 1264 0 0.0191229 0.0216771 -0.0162421 1.77435e-07 2.834e-05 
0.324048 -0.369374 -0.697712 -0.253413 -0.247137 -0.17971 2216 795 0 0.0391877 -0.0925978 -0.0196229 5.35629e-07 8.61763e-05 
0.154253 -0.0527554 -0.171404 0.0814467 0.305899 -0.0960225 2229 1557 0 -0.00841971 0.0193661 -0.0100888 1.02486e-07 1.63445e-05 
0.428175 -0.000604485 0.128363 0.320304 0.120879 -0.0129786 1152 1160 0 0.00183026 -0.0157053 -0.00920943 1.51508e-07 2.41863e-05 
0.325043 0.298295 0.244776 0.0683801 -0.0995804 0.163153 264 1666 0 -0.0142207 -0.037878 -0.0251006 7.76384e-08 1.23757e-05 
0.325043 0.298295 0.244776 0.650605 -0.133773 -0.284958 264 2006 0 0.0113728 0.00562404 -0.0251283 1.06635e-07 1.70076e-05 
0.325043 0.298295 0.244776 -0.00960603 -0.0755174 0.338905 264 727 0 -0.00119526 -0.00305953 -0.00342279 3.38603e-08 5.39267e-06 
0.0427659 0.0016761 0.0573049 0.00287215 -0.0295109 0.101236 1255 867 0 0.000290175 0.000207268 0.000418436 1.43399e-08 2.28291e-06 
0.0683801 -0.0995804 0.163153 -0.0721825 -0.0112961 -0.247047 1666 807 0 -0.019776 -0.0153973 0.00211473 1.55799e-07 2.48735e-05 
-0.0813282 -0.0220015 -0.0424121 -0.261941 -0.0176332 0.259099 948 793 0 -0.0234677 -0.00514805 0.0082837 1.15303e-07 1.83933e-05 
-0.254712 -0.116992 0.356021 -0.00960603 -0.0755174 0.338905 1264 727 0 3.46358e-05 -0.00371892 -0.00293736 1.73891e-08 2.76852e-06 
-0.254712 -0.116992 0.356021 -0.0358942 0.901202 0.37895 1264 2085 0 0.00942003 0.0359921 -0.0134668 8.89304e-08 1.41788e-05 
-0.00618723 0.801076 0.0165247 -0.051446 -0.0611718 -0.324654 786 1592 0 -0.002646 -0.00130624 -0.00110025 5.08007e-09 8.086e-07 
0.532195 0.250931 0.126758 0.201955 0.479256 0.0988391 1759 698 0 0.00878123 -0.0403558 -0.101255 4.52753e-07 7.27189e-05 
-0.398747 0.0337079 -0.315497 -1.13964 1.20996 0.658709 813 984 0 -0.0530176 -0.0101103 -0.0181479 3.95706e-07 6.34824e-05 
-1.13964 1.20996 0.658709 -0.95102 0.881578 0.905642 984 1964 0 -0.00158511 0.00591226 0.00251882 1.16014e-07 1.8507e-05 
-1.13964 1.20996 0.658709 -0.468689 0.598969 0.369531 984 295 0 -0.00463544 -0.0233227 -0.00668214 1.09772e-07 1.75091e-05 
0.0553132 0.477327 -0.0984559 0.442884 0.239078 -0.321461 415 1121 0 -0.0154655 0.0153218 -0.0202677 1.67679e-07 2.67765e-05 
0.320304 0.120879 -0.0129786 0.0140238 -0.0665699 0.279772 1160 1009 0 0.00374406 -0.0161403 -0.0107861 1.6908e-07 2.7001e-05 
-0.116066 0.195403 0.00423448 -0.134693 0.205908 0.104556 2309 489 0 0.0111327 -0.0486613 -0.0036604 2.66893e-07 4.27053e-05 
0.0203632 -0.052252 0.183942 0.0442703 -0.00485619 0.16321 1064 1864 0 -0.000525372 -0.000912927 0.000113609 1.66559e-08 2.65175e-06 
0.201955 0.479256 0.0988391 0.504249 0.221704 -0.170056 698 1539 0 -0.0163919 -0.0269556 -0.0381793 2.18347e-07 3.49032e-05 
0.570834 0.0559601 0.264702 0.442884 0.239078 -0.321461 460 1121 0 0.000728443 -0.00506707 0.0057427 1.12578e-07 1.79576e-05 
0.650605 -0.133773 -0.284958 0.442884 0.239078 -0.321461 2006 1121 0 -0.0025499 -0.000484493 0.00401761 1.01833e-07 1.62402e-05 
0.442884 0.239078 -0.321461 0.64548 -0.130336 0.318375 1121 651 0 -0.00733232 0.00127319 -0.00462807 1.23116e-07 1.96428e-05 
-0.00960603 -0.0755174 0.338905 0.00777115 -0.0713336 0.240128 727 1046 0 -0.00412046 -0.00197553 -0.000353629 4.62512e-08 7.36789e-06 
-0.00960603 -0.0755174 0.338905 0.0195249 0.084791 0.162224 727 1466 0 0.00148184 0.00441316 -0.00529868 1.1583e-08 1.84392e-06 
0.0637417 0.0123049 0.128811 0.0442703 -0.00485619 0.16321 57 1864 0 0.00105482 -0.00115256 0.000283522 2.69518e-08 4.29182e-06 
0.0140238 -0.0665699 0.279772 0.00777115 -0.0713336 0.240128 1009 1046 0 0.00969346 0.0147477 -0.000301381 1.29106e-07 2.06008e-05 
0.0140238 -0.0665699 0.279772 -0.157967 -0.0125709 0.226166 1009 1895 0 -0.00120241 -0.0213651 -0.00866782 1.66947e-07 2.66593e-05 
0.341836 0.610019 -1.28071 -0.978019 1.5036 -1.83464 494 987 0 0.0275037 0.0788118 -0.113641 5.04083e-07 8.10485e-05 
0.504249 0.221704 -0.170056 0.290314 0.287204 0.354064 1539 2315 0 -0.0245247 -0.00757142 0.00936546 1.59181e-07 2.54152e-05 
0.64548 -0.130336 0.318375 0.067519 -0.140891 0.328806 651 170 0 -0.00112283 -0.00307952 -0.00342347 8.60742e-08 1.37227e-05 
0.202582 0.0382271 0.106056 0.0073076 -0.120338 0.203933 2257 2021 0 0.000538298 -0.000695096 -0.000253962 4.54368e-08 7.23804e-06 
0.0195249 0.084791 0.162224 0.070226 0.00774345 0.249867 1466 1715 0 -0.000166812 -0.000467653 -2.80752e-05 1.04605e-08 1.66518e-06 
-0.139551 0.062 0.147968 -0.0576425 0.0209499 0.173553 572 685 0 -0.000276513 -6.15384e-05 2.89441e-05 1.9101e-08 3.04118e-06 
0.067519 -0.140891 0.328806 0.182406 -0.023368 0.28774 170 2212 0 0.0121707 -0.00943989 -0.00192042 1.05309e-07 1.67957e-05 
0.067519 -0.140891 0.328806 -0.0601322 -0.33214 0.261526 170 226 0 -0.000859613 -0.00125539 -0.00273862 6.76222e-08 1.07769e-05 
0.067519 -0.140891 0.328806 0.0497575 -0.0870103 0.468519 170 1511 0 -0.0107873 0.0065174 -0.00487425 1.21754e-07 1.9425e-05 
0.0073076 -0.120338 0.203933 0.0899118 0.0432718 0.229276 2021 787 0 -0.00221038 0.0147218 -0.00516158 5.43657e-08 8.66195e-06 
0.379044 0.341067 0.113887 0.0427393 0.206215 0.0171802 1324 760 0 -0.00012771 0.000133689 -3.44249e-05 4.765e-09 7.58445e-07 
-0.0576425 0.0209499 0.173553 0.0155876 -0.0612387 0.0704775 685 514 0 -0.000304075 0.00074556 -0.00104875 1.8991e-08 3.02366e-06 
-0.0601322 -0.33214 0.261526 0.260509 -0.195244 0.421094 226 869 0 -0.00220442 0.0128362 -0.00725337 1.33925e-07 2.13719e-05 
0.130809 -0.0552112 0.184471 0.163286 -0.0227394 -0.0964818 15 175 0 -0.00363191 0.00756277 0.00121691 7.87094e-08 1.25467e-05 
0.130809 -0.0552112 0.184471 0.0497575 -0.0870103 0.468519 15 1511 0 0.0141692 -0.00384661 0.00374414 1.26456e-07 2.0177e-05 
0.130809 -0.0552112 0.184471 0.0899118 0.0432718 0.229276 15 787 0 -0.00928942 -0.00125473 -0.00601298 8.4737e-08 1.35091e-05 
0.0427393 0.206215 0.0171802 0.0750783 -0.0159643 0.421233 760 228 0 -0.00946805 -0.00735108 0.00827472 6.69766e-08 1.06739e-05 
0.0497575 -0.0870103 0.468519 0.000930477 0.0950816 0.254448 1511 2113 0 0.0027217 5.14838e-05 -0.00472739 2.99037e-08 4.76216e-06 
0.0899118 0.0432718 0.229276 0.112518 -0.0107502 0.210551 787 1398 0 -0.00641951 -0.00124127 -0.0171098 1.35115e-07 2.15623e-05 
0.182406 -0.023368 0.28774 0.122862 0.141678 0.36516 2212 86 0 0.00261678 0.000692522 -0.0131011 1.34165e-07 2.14103e-05 
0.091353 0.0168652 0.429994 -0.0877346 0.0696405 0.321053 747 1794 0 -1.42933e-05 -5.39245e-06 6.13233e-06 2.99934e-08 4.77644e-06 
0.0155876 -0.0612387 0.0704775 -0.00537717 0.0811112 0.0109942 514 1288 0 0.000104115 3.69939e-05 -0.000396068 7.34152e-09 1.16861e-06 
0.163286 -0.0227394 -0.0964818 -0.00720582 0.0264599 -0.0972381 175 1432 0 -0.00118911 0.00288146 0.000130245 2.3513e-08 3.74396e-06 
0.000930477 0.0950816 0.254448 0.0129037 0.0591521 0.25243 2113 713 0 0.00318382 -0.00284553 -0.00402891 2.4538e-08 3.90725e-06 
0.000930477 0.0950816 0.254448 0.0844313 0.193928 0.192398 2113 977 0 -0.00108779 -0.000206355 -0.0013834 4.71174e-08 7.50602e-06 
-0.130102 0.0138477 0.29787 -0.0875854 0.170336 0.208248 1426 886 0 0.000874436 -0.0015286 -2.18874e-05 4.97516e-08 7.92607e-06 
-1.20864 1.36918 -1.81924 0.397078 0.642109 -0.00725432 1874 2050 0 -0.0217069 -0.123837 -0.0134398 4.38832e-07 7.04629e-05 
-0.0162366 0.00613417 0.0109097 -0.0267049 -0.0156037 0.0323802 671 609 0 0.00372049 -0.00313974 -3.21132e-05 4.92109e-08 7.83983e-06 
-0.0267049 -0.0156037 0.0323802 -0.0106333 -0.00215348 0.390925 609 924 0 -0.000546615 -0.000451279 0.000341588 2.39316e-08 3.81065e-06 
0.112518 -0.0107502 0.210551 0.0417536 -0.0634234 0.239898 1398 2233 0 -0.00686082 -0.00585074 -0.0181072 1.3894e-07 2.21744e-05 
0.122862 0.141678 0.36516 0.00857302 0.0513748 0.417716 86 1140 0 0.000896574 0.00382876 -0.0260702 1.93497e-07 3.09154e-05 
-0.0136679 0.011856 0.0259329 -0.0875854 0.170336 0.208248 294 886 0 -0.00272758 0.00536475 0.00479672 1.2897e-08 2.05315e-06 
-0.0875854 0.170336 0.208248 -0.0487929 0.111639 0.261691 886 1298 0 -0.00362227 -0.00145707 -0.00638118 9.38893e-08 1.4971e-05 
0.0461586 -0.00349835 0.0114677 -0.00103814 0.0879433 0.106274 1602 846 0 -0.000898073 0.000126067 -0.000813897 2.95655e-08 4.70827e-06 
-0.00537717 0.0811112 0.0109942 -0.0455164 -0.019187 0.00220513 1288 629 0 -0.000659578 5.33605e-05 -0.00113853 2.05206e-08 3.26729e-06 
-0.0160547 0.0134146 0.0948253 0.0269096 -0.0456251 0.285854 736 1083 0 0.00207289 -0.00155917 0.00092993 2.037e-08 3.24329e-06 
-0.0160547 0.0134146 0.0948253 0.0299866 0.00375996 0.130873 736 119 0 1.07872e-06 2.68563e-05 -1.31402e-06 1.21585e-08 1.93555e-06 
-0.0160547 0.0134146 0.0948253 0.000167795 -0.0553377 0.0719302 736 932 0 0.00136078 0.00027669 -0.00233445 3.39305e-08 5.40386e-06 
0.00857302 0.0513748 0.417716 0.0269096 -0.0456251 0.285854 1140 1083 0 -0.000641466 0.00165034 -0.00120739 5.70872e-08 9.09606e-06 
0.00857302 0.0513748 0.417716 0.0300284 0.0526815 0.387642 1140 1596 0 0.00158688 0.00523929 -0.0354859 2.09874e-07 3.35432e-05 
0.0417536 -0.0634234 0.239898 0.0701917 0.00427499 0.061389 2233 1428 0 -0.00767458 0.0039183 -0.00338657 7.17595e-08 1.14372e-05 
0.0417536 -0.0634234 0.239898 -0.0487929 0.111639 0.261691 2233 1298 0 -0.00142597 0.00241849 0.00175014 8.43977e-09 1.34346e-06 
0.0417536 -0.0634234 0.239898 0.0240844 0.0136678 0.161562 2233 1779 0 -0.000429669 -0.0120148 -0.0103146 1.18767e-07 1.89472e-05 
-0.0218163 0.0626482 -0.0407292 -0.00103814 0.0879433 0.106274 1293 846 0 0.000642908 -0.000259185 0.00117549 1.88866e-10 3.0059e-08 
-0.0218163 0.0626482 -0.0407292 -0.0424743 -0.0286465 0.041719 1293 976 0 0.000367612 0.00137912 -0.0015845 4.16086e-09 6.62277e-07 
-0.0455164 -0.019187 0.00220513 -0.0984475 0.0423518 0.0588451 629 1919 0 -0.000148025 -7.53611e-05 -0.000325819 1.18729e-08 1.89008e-06 
0.000167795 -0.0553377 0.0719302 -0.00525241 -0.0419149 0.0545687 932 250 0 0.000275437 0.000122307 -0.000860545 1.12504e-08 1.79096e-06 
-0.0487929 0.111639 0.261691 -0.0108125 0.0300682 0.206976 1298 859 0 -0.00497962 0.000302832 -0.00556188 7.35507e-08 1.17231e-05 
-0.0984475 0.0423518 0.0588451 -0.114474 -0.0170164 0.0534668 1919 957 0 -0.000174683 -0.000143617 0.000102445 5.44092e-10 8.65959e-08 
0.0369514 -0.0358338 0.0754971 -0.0224042 -0.0310781 0.0477785 1138 1482 0 -0.00113411 0.00152353 -0.00153224 2.37786e-08 3.78627e-06 
0.0357462 -0.0463122 0.0990062 -0.0332206 -0.0382903 0.104277 371 1217 0 -1.86211e-05 -0.00109793 -0.000736138 3.06369e-08 4.87899e-06 
0.0357462 -0.0463122 0.0990062 -0.00427706 -0.0365564 0.108698 371 1803 0 -0.000487961 0.000941346 0.000322983 1.82833e-09 2.90998e-07 
0.0119366 -0.0712824 0.0110668 0.0381658 -0.0313178 0.0657798 1234 312 0 0.000130609 -5.36997e-05 7.26517e-05 4.82606e-09 7.68165e-07 
0.0300284 0.0526815 0.387642 -0.00681373 -0.0791863 0.152473 1596 1872 0 0.00165975 0.00916079 -0.00804514 7.38816e-08 1.1776e-05 
0.0300284 0.0526815 0.387642 0.0369239 0.0103441 0.153546 1596 1701 0 -0.00585912 -0.00451715 -0.0101807 6.3142e-08 1.0062e-05 
-0.0539176 0.0398349 0.0327576 0.0124825 -0.0233839 0.0821169 1858 1571 0 0.000280531 4.11167e-05 -0.000750787 1.99182e-08 3.17133e-06 
-0.0424743 -0.0286465 0.041719 -0.00525241 -0.0419149 0.0545687 976 250 0 -0.000355376 -0.00107017 0.00212929 5.60111e-09 8.91544e-07 
-0.00525241 -0.0419149 0.0545687 -0.00681373 -0.0791863 0.152473 250 1872 0 -0.000103123 -0.00276009 0.00150101 2.96375e-08 4.71974e-06 
-0.0224042 -0.0310781 0.0477785 -0.0260668 0.00956467 0.140235 1482 1748 0 0.000528337 -0.000149999 0.000385113 7.76942e-09 1.23673e-06 
-0.00681373 -0.0791863 0.152473 0.00287215 -0.0295109 0.101236 1872 867 0 0.000459619 -0.000569752 -0.000723385 2.62636e-08 4.18217e-06 
0.00534243 -0.0804569 0.0596009 -0.0161214 -0.0178966 0.121342 5 526 0 -0.00244029 -1.38528e-05 -0.00052187 3.89718e-08 6.20737e-06 
0.00534243 -0.0804569 0.0596009 0.0437185 -0.013821 0.0908925 5 953 0 0.00168382 -4.4771e-05 -0.000526156 2.573e-08 4.09716e-06 
0.0146454 -0.00274188 0.0480163 0.0710491 -0.0245455 0.00683722 436 1382 0 3.1335e-05 -0.000188013 1.57206e-05 8.7652e-09 1.39527e-06 
0.0636953 0.0682192 -0.112207 0.0268736 -0.0418705 0.0756434 1771 383 0 0.000372436 -9.72725e-05 -0.00013223 2.42265e-08 3.85762e-06 
0.0225433 -0.00816014 0.0799359 -0.000126228 0.00101042 0.043195 2261 546 0 0.00232163 0.000790383 -0.00455636 4.31243e-08 6.86935e-06 
0.0224008 -0.000357073 0.0912438 0.0346263 -6.392e-05 0.0561634 1327 330 0 -0.00041968 0.000703968 -0.00122946 1.93523e-08 3.0812e-06 
0.0124825 -0.0233839 0.0821169 0.0205002 -0.0224969 0.0707268 1571 1044 0 -9.75915e-05 -0.000636065 0.000438662 1.73238e-08 2.75811e-06 
0.0124825 -0.0233839 0.0821169 0.0593804 0.0986013 0.146457 1571 448 0 -0.00204799 0.00108965 -0.000152718 2.77491e-08 4.41885e-06 
0.0124825 -0.0233839 0.0821169 0.0391278 -0.0569103 0.103248 1571 1455 0 0.00167764 0.000151346 -0.00112065 3.40357e-08 5.42062e-06 
0.0205002 -0.0224969 0.0707268 0.0804874 -0.0437182 0.0739708 1044 1142 0 0.000164079 -0.000357871 -0.000522617 5.90026e-09 9.39165e-07 
0.0804874 -0.0437182 0.0739708 -0.0365287 0.00246199 0.148138 1142 453 0 -0.00149078 0.000288905 -0.000653086 8.95858e-09 1.42606e-06 
-0.0161214 -0.0178966 0.121342 -0.0191391 -0.0473449 0.136501 526 467 0 -0.00162582 -0.000494274 -0.00395032 2.40083e-08 3.82286e-06 
0.0249075 -0.027846 -0.0199337 -0.001795 -0.0208318 0.068359 593 1926 0 -0.00445767 -0.00190296 -0.000612648 5.50755e-08 8.77517e-06 
-0.00530818 -0.0119505 0.117677 -0.0274883 -0.0748239 0.0724867 1599 1443 0 -0.000274706 -4.03143e-05 -0.0011146 8.82572e-09 1.4049e-06 
0.0268736 -0.0418705 0.0756434 0.0346263 -6.392e-05 0.0561634 383 330 0 0.000676303 -0.00151413 -0.000558763 4.00922e-08 6.38597e-06 
0.0346263 -6.392e-05 0.0561634 0.0391278 -0.0569103 0.103248 330 1455 0 -0.00128434 -0.00137385 0.000720608 2.61568e-08 4.16515e-06 
0.0391278 -0.0569103 0.103248 0.0295375 -0.0876815 0.112272 1455 1334 0 0.000236512 -0.00121575 7.27255e-05 1.20159e-08 1.91285e-06 
0.0593804 0.0986013 0.146457 0.00576188 0.0862387 0.18856 448 385 0 -0.00203363 0.000669344 -0.00189182 3.99351e-08 6.36092e-06 
0.0284018 -0.0157692 0.130664 0.0331465 -0.0309708 0.107546 1283 1261 0 -8.81375e-05 -3.28463e-06 -1.11273e-05 6.22585e-09 9.90998e-07 
-0.0476342 0.0396197 0.147544 -0.0215118 0.0343105 0.196382 563 1740 0 0.00116644 -0.00177459 -0.00175998 3.52757e-08 5.61824e-06 
-0.0215118 0.0343105 0.196382 -0.0114076 -0.0209636 0.15389 1740 655 0 0.00150669 0.000905636 -0.0053894 5.54057e-08 8.82784e-06 
0.0352562 -0.013992 0.130352 0.00736571 0.00986983 0.0940014 893 715 0 0.00064341 -7.01446e-05 -0.00020834 1.2027e-08 1.91461e-06 
-0.0430418 -0.41621 0.279757 -0.360237 -0.0792493 -0.226095 647 627 0 0.0401293 0.0243102 -0.0206134 1.96275e-07 3.13611e-05 
-0.0274403 -0.0748033 0.0724887 -0.0233355 -0.107965 0.0914144 1443 1815 0 -0.00111245 0.000432187 -0.000222936 1.01093e-08 1.60928e-06 
-0.0043498 -0.0531264 0.0402272 0.0488118 -0.00844322 0.00835156 322 4 0 -8.05393e-05 0.000569091 -0.000526094 1.70451e-08 2.71373e-06 
-0.0001254 0.00099908 0.0432423 0.0346215 -6.28177e-05 0.0561506 546 330 0 -0.00139571 -0.0003652 0.00041481 3.59647e-08 5.72806e-06 
0.0149765 -0.0285878 0.146706 0.00282911 -0.0261203 0.163243 2152 1989 0 0.000107731 -0.000228701 9.80091e-05 6.47098e-09 1.03002e-06 
0.0149765 -0.0285878 0.146706 0.00978092 -0.136497 0.079594 2152 402 0 0.000740631 0.000188266 0.000307962 6.04097e-09 9.61565e-07 
0.00579047 0.0862192 0.188563 -0.0379098 0.0727132 0.140949 385 487 0 -0.000662017 0.00183337 -3.76858e-06 2.92752e-08 4.66201e-06 
0.00579047 0.0862192 0.188563 -0.014781 -0.00550496 0.164204 385 1945 0 0.00192503 -0.000575983 -0.00193858 3.56076e-08 5.67115e-06 
-0.00645064 -0.0159635 0.0927322 -0.0192767 -0.0799399 0.0695531 1624 1861 0 0.000825953 0.000216284 -0.000545191 2.81472e-09 4.48002e-07 
-0.00645064 -0.0159635 0.0927322 -0.0102198 -0.00392915 0.0834123 1624 1285 0 -0.000732094 -0.00040103 -0.000618934 2.02776e-08 3.22858e-06 
0.00282911 -0.0261203 0.163243 -0.0476521 0.0396417 0.147574 1989 563 0 -0.000453255 -8.58942e-06 0.000263287 1.34401e-08 2.13963e-06 
0.00282911 -0.0261203 0.163243 0.0331463 -0.0309688 0.107546 1989 1261 0 0.000173908 -2.15095e-05 -0.000132599 5.14063e-09 8.18241e-07 
-0.0102198 -0.00392915 0.0834123 0.0106697 -0.0256846 0.0695876 1285 2086 0 -0.000475919 -0.000111374 -0.000710079 1.66269e-08 2.64713e-06 
-0.0103572 -0.056945 0.0998407 0.00256404 -0.019643 0.0878597 2031 1886 0 8.65664e-05 -2.034e-05 -9.76918e-05 7.8334e-09 1.24692e-06 
-0.228006 0.0553718 -0.214698 0.0524921 0.0957323 -0.231895 1681 117 0 -0.00276369 0.00467636 -0.00261197 8.37522e-08 1.33519e-05 
-0.030332 -0.0466542 -0.100152 0.0220207 -0.0304483 -0.00688357 94 7 0 -1.54998e-05 0.000217552 0.000199042 1.36912e-08 2.17961e-06 
-0.00241384 -0.102816 0.0519064 -0.0128882 -0.102274 0.107335 1207 1970 0 -9.85488e-06 -3.31027e-05 1.02423e-05 1.76944e-09 2.81625e-07 
0.0220207 -0.0304483 -0.00688357 -0.0379098 0.0727132 0.140949 7 487 0 -0.000452329 -0.000992823 0.000587308 2.9205e-08 4.65083e-06 
0.0220207 -0.0304483 -0.00688357 -0.00429861 -0.0282543 -0.0052876 7 132 0 0.000659969 0.000205673 -0.000133202 2.61541e-08 4.16473e-06 
-0.0128882 -0.102274 0.107335 0.00188639 -0.0928506 0.0604496 1970 1521 0 -0.000259339 -0.000331821 -0.000679177 1.09264e-08 1.73938e-06 
0.0488118 -0.00844322 0.00835156 -0.00429861 -0.0282543 -0.0052876 4 132 0 -0.000401356 0.000952211 -0.00123831 3.14671e-08 5.01129e-06 
-0.0233355 -0.107965 0.0914144 0.00978092 -0.136497 0.079594 1815 402 0 0.000254891 -0.000363073 -0.000521484 1.2156e-08 1.93515e-06 
0.00978092 -0.136497 0.079594 0.0195432 -0.0809065 0.0587618 402 1197 0 0.000109336 -0.00105538 -0.00202626 3.22652e-08 5.13847e-06 
-0.0192767 -0.0799399 0.0695531 0.0346215 -6.28177e-05 0.0561506 1861 330 0 -0.000436764 0.000533279 0.000742747 2.07841e-08 3.30926e-06 
-0.0192767 -0.0799399 0.0695531 -0.0316336 -0.0695504 0.0556731 1861 2153 0 -0.000568354 9.8545e-05 -0.0025566 2.04111e-08 3.24985e-06 
-0.0192767 -0.0799399 0.0695531 0.0195432 -0.0809065 0.0587618 1861 1197 0 0.000136574 4.41304e-05 0.000147956 1.2575e-09 2.00142e-07 
0.03421 -0.0124212 0.154218 -0.014781 -0.00550496 0.164204 2098 1945 0 -0.0003631 0.000133417 0.0003279 5.85361e-11 9.31632e-09 
0.0295369 -0.0876727 0.112273 0.0106697 -0.0256846 0.0695876 1334 2086 0 0.000155806 1.71177e-05 -0.000249785 1.06202e-08 1.69062e-06 
0.00643469 -0.00921502 0.108568 -0.0113887 -0.0209626 0.153917 2223 655 0 0.000948168 0.000265254 0.00128226 2.28669e-08 3.64104e-06 
0.00643469 -0.00921502 0.108568 0.0142717 -0.0601005 0.121824 2223 26 0 -0.000215522 4.58293e-05 -0.000119724 7.86814e-09 1.25245e-06 
-0.0113887 -0.0209626 0.153917 0.00823095 -0.0635614 0.102183 655 2030 0 0.00348995 0.000940687 -0.00147054 3.19945e-08 5.09533e-06 
-0.0113887 -0.0209626 0.153917 -0.00297213 -0.0483887 0.127773 655 721 0 0.000214695 0.000193877 -0.00168129 4.76646e-10 7.58613e-08 
-0.00297213 -0.0483887 0.127773 0.0435919 -0.016472 0.108284 721 1902 0 -0.000328605 -0.000469869 -0.000502752 2.68433e-08 4.27453e-06 
0.00256404 -0.019643 0.0878597 0.0427641 0.00167545 0.0573002 1886 1255 0 0.000164673 -7.20549e-07 0.000106352 9.60461e-09 1.52891e-06 
0.00256404 -0.019643 0.0878597 -0.00569911 -0.00785681 0.0951721 1886 1118 0 0.000246943 0.00031132 -0.000164765 1.36652e-08 2.17547e-06 
0.0524921 0.0957323 -0.231895 -0.594732 -0.0687466 0.24497 117 1506 0 -3.53002e-05 -0.000179042 1.53118e-05 1.19343e-08 1.89985e-06 
0.0524921 0.0957323 -0.231895 -0.108409 -0.0298511 0.0708205 117 1611 0 0.00461915 -0.00279857 -0.000654187 1.05076e-07 1.67585e-05 
-0.00429861 -0.0282543 -0.0052876 -0.0393887 -0.0841093 0.0012871 132 1319 0 0.00154151 -0.00198378 0.00113888 3.19496e-08 5.08818e-06 
-0.00429861 -0.0282543 -0.0052876 -0.108409 -0.0298511 0.0708205 132 1611 0 -0.000206185 0.00185434 -0.000889341 4.64638e-08 7.40179e-06 
0.0861947 -0.0977811 0.0399257 -0.014781 -0.00550496 0.164204 509 1945 0 -0.0019399 0.000427547 0.00159608 1.53515e-08 2.44402e-06 
0.0861947 -0.0977811 0.0399257 -0.0753763 0.103939 0.0375993 509 390 0 -0.00409162 0.00846205 -0.000842172 3.17356e-08 5.05407e-06 
0.00501826 -0.13267 0.0853208 0.0334907 -0.0914137 0.122421 701 2044 0 -0.000172726 -0.000324639 0.000121525 2.40703e-08 3.83274e-06 
0.00188639 -0.0928506 0.0604496 0.0195432 -0.0809065 0.0587618 1521 1197 0 0.000163812 -0.00197653 0.000232479 3.56e-08 5.66994e-06 
0.00188639 -0.0928506 0.0604496 0.0141188 -0.136762 0.0322205 1521 1584 0 0.000605355 0.00101601 -0.000200236 3.82149e-09 6.08255e-07 
0.0195432 -0.0809065 0.0587618 -0.000873409 -0.0828199 0.0579806 1197 1416 0 -0.000160745 -0.00188954 -0.00168756 3.6736e-08 5.851e-06 
-0.0316336 -0.0695504 0.0556731 0.006678 -0.0841632 0.065565 2153 1986 0 0.000183861 -0.000326907 -0.00066362 1.83773e-08 2.92591e-06 
0.0106697 -0.0256846 0.0695876 0.00823095 -0.0635614 0.102183 2086 2030 0 -0.00104555 -0.000328244 0.00286362 1.62631e-08 2.5892e-06 