ITEM: TIMESTEP
20000000
ITEM: NUMBER OF ATOMS
2416
ITEM: BOX BOUNDS ff ff ff
-0.01 0.45
-0.15 0.15
-0.08 0.1
ITEM: ATOMS id type x y z ix iy iz vx vy vz fx fy fz c_cc_1 c_cc_2 c_cc_3 c_cc_4 c_cc_5 c_cc_6 c_cc_7 c_cc_8 c_cc_9 c_cc_10 c_cc_11 c_cc_12 c_cc_13 c_cc_14 c_cc_15 c_cc_16 f_fppacc radius 
2262 3 0.00397451 -0.0120287 -0.0565929 0 0 0 -1.70631 -5.56591 2.07082 0 -0.000164368 0 0 0 0 0 0 0 0 0 0 0 0 0 0 0 0 0 1 0.002 
2461 7 0.0129032 -0.0239974 -0.0504015 0 0 0 -0.168502 -5.39807 2.06536 0 -0.000164368 0 0 0 0 0 0 0 0 0 0 0 0 0 0 0 0 0 0 0.002 
343 2 0.0142413 -0.0430996 -0.0370974 0 0 0 -2.67615 -15.0675 18.5021 0 -0.000164368 0 0 0 0 0 0 0 0 0 0 0 0 0 0 0 0 0 164 0.002 
1198 2 0.0146603 -0.036152 -0.0390116 0 0 0 -2.19796 -7.5173 17.3195 0 -0.000164368 0 0 0 0 0 0 0 0 0 0 0 0 0 0 0 0 0 156 0.002 
285 2 0.00873208 -0.00171006 -0.0456782 0 0 0 2.61302 -2.51827 0.162967 0 -0.000164368 0 0 0 0 0 0 0 0 0 0 0 0 0 0 0 0 0 141 0.002 
694 5 0.00780124 -0.0386867 -0.0427202 0 0 0 -0.796497 -4.6329 1.52382 0 -0.000164368 0 0 0 0 0 0 0 0 0 0 0 0 0 0 0 0 0 185 0.002 
2037 3 0.0119783 -0.0545008 -0.0190823 0 0 0 -2.54313 -5.26714 15.9328 0 -0.000164368 0 0 0 0 0 0 0 0 0 0 0 0 0 0 0 0 0 72 0.002 
403 2 0.00568485 -0.0416269 0.00303016 0 0 0 0.439595 1.50209 6.62979 0 -0.000164368 0 0 0 0 0 0 0 0 0 0 0 0 0 0 0 0 0 156 0.002 
810 4 0.0144396 -0.0454607 0.0353084 0 0 0 2.31575 4.63442 6.34427 0 -0.000164368 0 0 0 0 0 0 0 0 0 0 0 0 0 0 0 0 0 190 0.002 
1228 2 0.00549735 -0.031451 0.0478002 0 0 0 4.15706 19.2426 16.2181 0 -0.000164368 0 0 0 0 0 0 0 0 0 0 0 0 0 0 0 0 0 170 0.002 
74 1 0.00626414 -0.0556273 0.0143978 0 0 0 0.740436 2.36341 9.52435 0 -0.000164368 0 0 0 0 0 0 0 0 0 0 0 0 0 0 0 0 0 105 0.002 
1728 9 0.014277 -0.0555256 0.0141757 0 0 0 3.83525 2.99859 10.8163 0 -0.000164368 0 0 0 0 0 0 0 0 0 0 0 0 0 0 0 0 0 72 0.002 
622 1 0.0128468 0.00533111 -0.0512636 0 0 0 -0.817713 -3.82535 -0.257019 0 -0.000164368 0 0 0 0 0 0 0 0 0 0 0 0 0 0 0 0 0 175 0.002 
1834 2 0.00284767 0.00975328 -0.0531738 0 0 0 -3.76204 -15.6 -1.17073 1.68386 0.746304 0.389401 0 0 0 0 0 0 0 0 0 0 0 0 0 0 0 0 63 0.002 
2348 9 0.00616366 0.0150196 -0.0442433 0 0 0 4.39187 -17.2782 0.801606 0 -0.000164368 0 0 0 0 0 0 0 0 0 0 0 0 0 0 0 0 0 8 0.002 
1512 6 0.0132522 0.0278003 -0.0505317 0 0 0 -1.54315 -13.2339 -14.8775 0 -0.000164368 0 0 0 0 0 0 0 0 0 0 0 0 0 0 0 0 0 159 0.002 
1706 5 0.00447829 0.00420254 -0.0395728 0 0 0 -0.523002 -2.92214 -0.582089 0 -0.000164368 0 0 0 0 0 0 0 0 0 0 0 0 0 0 0 0 0 148 0.002 
2113 1 0.0114284 0.0366838 -0.0413443 0 0 0 -3.46055 -6.43326 -1.36735 0 -0.000164368 0 0 0 0 0 0 0 0 0 0 0 0 0 0 0 0 0 54 0.002 
2494 2 0.0101808 0.0337163 -0.0368933 0 0 0 0.184628 -0.749361 -0.441778 0 -0.000164368 0 0 0 0 0 0 0 0 0 0 0 0 0 0 0 0 0 0 0.002 
2443 4 0.00359797 0.0283249 -0.0359269 0 0 0 1.10046 1.16278 -3.05505 0 -0.000164368 0 0 0 0 0 0 0 0 0 0 0 0 0 0 0 0 0 0 0.002 
545 3 0.0134996 0.0561106 -0.0355 0 0 0 4.39108e-88 1.42235e-19 -5.61329e-12 -1.15097e-89 0 3.55271e-15 0 0 0 0 0 0 0 0 0 0 0 0 0 0 0 0 2 0.002 
892 5 0.0182367 0.0545543 -0.0355 0 0 0 -2.23158e-08 2.34148e-09 -1.34995e-12 5.00452e-09 -5.25125e-10 1.77636e-14 0 0 0 0 1 0 0 0 0 0 0 0 0 0 0 0 261 0.002 
126 1 0.0186479 0.0584734 -0.0355 0 0 0 2.23158e-08 -2.34148e-09 -8.91972e-13 -5.00452e-09 5.25125e-10 -1.42109e-14 0 0 0 0 1 0 0 0 0 0 0 0 0 0 0 0 259 0.002 
6 7 0.0118235 0.0631996 -0.0355 0 0 0 3.87697e-91 -1.4218e-19 -2.81416e-12 -1.16141e-91 1.35525e-20 0 0 0 0 0 0 0 0 0 0 0 0 0 0 0 0 0 7 0.002 
632 2 0.0187306 0.0625563 -0.0355 0 0 0 2.8289e-83 -3.01988e-19 -3.37593e-12 -1.03819e-83 0 0 0 0 0 0 0 0 0 0 0 0 0 0 0 0 0 0 11 0.002 
1940 7 0.00989204 0.0251025 -0.0330899 0 0 0 0.0967804 -2.97531 -0.794625 0 -0.000164368 0 0 0 0 0 0 0 0 0 0 0 0 0 0 0 0 0 115 0.002 
2473 5 0.00922828 0.0442454 -0.0320266 0 0 0 0.339239 -1.06624 0.0328749 0 -0.000164368 0 0 0 0 0 0 0 0 0 0 0 0 0 0 0 0 0 3 0.002 
402 6 0.00385522 0.0501636 -0.0320192 0 0 0 0.0545616 -0.221418 0.049558 0 -0.000164368 0 0 0 0 0 0 0 0 0 0 0 0 0 0 0 0 0 100 0.002 
1494 3 0.00330147 0.057573 -0.0317982 0 0 0 0.0248305 -0.494669 0.0953169 0 -0.000164368 0 0 0 0 0 0 0 0 0 0 0 0 0 0 0 0 0 126 0.002 
2434 6 0.00296118 0.0631358 -0.0327094 0 0 0 -0.0145043 0.458395 0.577183 0.121528 0.00129382 -0.000711995 0 0 0 0 0 0 0 0 0 0 0 0 0 0 0 0 5 0.002 
2002 4 0.00708517 0.0623764 -0.0321454 0 0 0 -0.297303 -0.333872 1.08963 0 -0.000164368 0 0 0 0 0 0 0 0 0 0 0 0 0 0 0 0 0 72 0.002 
1195 6 0.00309705 0.0673979 -0.0325923 0 0 0 -0.713763 -0.745226 0.178481 0 -0.000164368 0 0 0 0 0 0 0 0 0 0 0 0 0 0 0 0 0 134 0.002 
1573 9 0.00887611 0.0682736 -0.032524 0 0 0 0.368242 -1.44592 0.24509 0 -0.000164368 0 0 0 0 0 0 0 0 0 0 0 0 0 0 0 0 0 138 0.002 
311 6 0.0167445 0.0705487 -0.031854 0 0 0 -3.40571 0.31133 -0.726258 0 -0.000164368 0 0 0 0 0 0 0 0 0 0 0 0 0 0 0 0 0 138 0.002 
1931 5 0.0100932 0.0559115 -0.0301037 0 0 0 0.337394 -0.437207 0.30853 0 -0.000164368 0 0 0 0 0 0 0 0 0 0 0 0 0 0 0 0 0 6 0.002 
1675 3 0.00818453 0.0595182 -0.0295036 0 0 0 -1.8972 -1.80921 0.580019 0 -0.000164368 0 0 0 0 0 0 0 0 0 0 0 0 0 0 0 0 0 54 0.002 
1264 1 0.0128445 0.0703877 -0.0297624 0 0 0 -0.64617 -1.22583 -0.201719 0 -0.000164368 0 0 0 0 0 0 0 0 0 0 0 0 0 0 0 0 0 174 0.002 
1244 6 0.0094402 0.0463704 -0.0270768 0 0 0 0.266824 -0.44753 0.210006 0 -0.000164368 0 0 0 0 0 0 0 0 0 0 0 0 0 0 0 0 0 132 0.002 
696 3 0.00445528 0.0521796 -0.0283727 0 0 0 0.184449 -0.386134 0.327307 0 -0.000164368 0 0 0 0 0 0 0 0 0 0 0 0 0 0 0 0 0 164 0.002 
2489 6 0.00385651 0.0609467 -0.0284109 0 0 0 0.757421 -4.29887 1.18338 0 -0.000164368 0 0 0 0 0 0 0 0 0 0 0 0 0 0 0 0 0 0 0.002 
206 3 0.0161438 0.0689286 -0.0278211 0 0 0 -0.957936 -3.18623 0.784501 0 -0.000164368 0 0 0 0 0 0 0 0 0 0 0 0 0 0 0 0 0 199 0.002 
710 1 0.0149122 0.0642164 -0.0255477 0 0 0 -0.132679 -2.4676 -0.961975 0 -0.000164368 0 0 0 0 0 0 0 0 0 0 0 0 0 0 0 0 0 154 0.002 
629 4 0.00405376 0.0705471 -0.026045 0 0 0 -1.27986 2.09807 -1.1385 0 -0.000164368 0 0 0 0 0 0 0 0 0 0 0 0 0 0 0 0 0 50 0.002 
1121 4 0.0161415 0.0722981 -0.0254648 0 0 0 -2.3059 -1.80332 0.766057 0 -0.000164368 0 0 0 0 0 0 0 0 0 0 0 0 0 0 0 0 0 141 0.002 
2381 3 0.00572279 0.0450732 -0.0240261 0 0 0 0.0970061 0.387618 0.0309031 0 -0.000164368 0 0 0 0 0 0 0 0 0 0 0 0 0 0 0 0 0 8 0.002 
668 2 0.00354092 0.0643407 -0.0239224 0 0 0 0.349238 -0.0101494 0.109536 0 -0.000164368 0 0 0 0 0 0 0 0 0 0 0 0 0 0 0 0 0 212 0.002 
1813 2 0.0114161 0.0685017 -0.0243236 0 0 0 1.94937 -3.19358 -2.04028 0 -0.000164368 0 0 0 0 0 0 0 0 0 0 0 0 0 0 0 0 0 116 0.002 
1031 4 0.0171383 0.0358352 -0.0217237 0 0 0 0.484671 -1.10828 0.342335 0 -0.000164368 0 0 0 0 0 0 0 0 0 0 0 0 0 0 0 0 0 8 0.002 
674 2 0.00365876 0.0481595 -0.0212283 0 0 0 -0.126318 0.0729839 1.4303 0 -0.000164368 0 0 0 0 0 0 0 0 0 0 0 0 0 0 0 0 0 187 0.002 
225 1 0.00448795 0.0543336 -0.0209916 0 0 0 0.623807 -0.899377 -0.225517 0 -0.000164368 0 0 0 0 0 0 0 0 0 0 0 0 0 0 0 0 0 83 0.002 
1760 8 0.0183352 0.0540839 -0.0206867 0 0 0 0.77072 -4.77351 3.14585 0 -0.000164368 0 0 0 0 0 0 0 0 0 0 0 0 0 0 0 0 0 129 0.002 
874 3 0.00977589 0.0597669 -0.0204437 0 0 0 -1.77708 0.19698 0.694315 0 -0.000164368 0 0 0 0 0 0 0 0 0 0 0 0 0 0 0 0 0 201 0.002 
1580 5 0.00918032 0.0716351 -0.0226966 0 0 0 -0.377108 -0.759302 -3.54247 0 -0.000164368 0 0 0 0 0 0 0 0 0 0 0 0 0 0 0 0 0 158 0.002 
2427 3 0.0158503 0.0280225 -0.0222156 0 0 0 0.55901 -2.16779 -8.17178 0 -0.000164368 0 0 0 0 0 0 0 0 0 0 0 0 0 0 0 0 0 2 0.002 
1326 1 0.0105507 0.0552664 -0.0183733 0 0 0 1.12062 -2.06078 1.44926 0 -0.000164368 0 0 0 0 0 0 0 0 0 0 0 0 0 0 0 0 0 142 0.002 
1519 2 0.0128479 0.0676888 -0.018147 0 0 0 -0.431312 -0.61844 0.0302959 0 -0.000164368 0 0 0 0 0 0 0 0 0 0 0 0 0 0 0 0 0 43 0.002 
1040 2 0.0125221 0.0734718 -0.0203134 0 0 0 0.057978 -0.598403 -1.52446 0 -0.000164368 0 0 0 0 0 0 0 0 0 0 0 0 0 0 0 0 0 174 0.002 
550 5 0.0170524 0.0599979 -0.0137338 0 0 0 0.61147 -0.910907 1.34838 0 -0.000164368 0 0 0 0 0 0 0 0 0 0 0 0 0 0 0 0 0 214 0.002 
2501 6 0.0141132 0.045686 -0.0101357 0 0 0 -0.104032 -0.402847 1.7736 0 -0.000164368 0 0 0 0 0 0 0 0 0 0 0 0 0 0 0 0 0 0 0.002 
1428 4 0.0165178 0.0322153 -0.00952017 0 0 0 0.682649 -2.94597 1.42858 0 -0.000164368 0 0 0 0 0 0 0 0 0 0 0 0 0 0 0 0 0 69 0.002 
235 1 0.00375275 0.0678159 -0.00495145 0 0 0 0.179172 0.283965 1.22425 0 -0.000164368 0 0 0 0 0 0 0 0 0 0 0 0 0 0 0 0 0 30 0.002 
1900 8 0.0141291 0.0714893 -0.0089127 0 0 0 1.51621 1.90295 -6.89646 0 -0.000164368 0 0 0 0 0 0 0 0 0 0 0 0 0 0 0 0 0 113 0.002 
1254 5 0.00859723 0.0705761 0.0038753 0 0 0 0.501155 -0.186529 -1.65199 -1.76861 5.24948 -3.30357 0 0 0 0 1 0 0 0 0 0 0 0 0 0 0 0 216 0.002 
689 4 0.013318 0.0362815 0.00786352 0 0 0 1.1281 -2.42639 3.3208 0 -0.000164368 0 0 0 0 0 0 0 0 0 0 0 0 0 0 0 0 0 208 0.002 
409 2 0.0115686 0.0740682 0.00734508 0 0 0 -0.781889 -0.107436 -0.831856 0 -0.000164368 0 0 0 0 0 0 0 0 0 0 0 0 0 0 0 0 0 223 0.002 
1717 1 0.00564599 0.0696715 0.00627409 0 0 0 -10.2264 32.9854 -40.8244 1.76861 -5.24981 3.30357 0 0 0 0 1 0 0 0 0 0 0 0 0 0 0 0 108 0.002 
1204 1 0.00383143 0.074978 0.00495463 0 0 0 -1.18651 -0.847366 -0.493334 0 -0.000164368 0 0 0 0 0 0 0 0 0 0 0 0 0 0 0 0 0 151 0.002 
1968 2 0.018597 0.0387632 -0.0123712 0 0 0 -13.12 -16.8982 16.6982 0 -0.000164368 0 0 0 0 0 0 0 0 0 0 0 0 0 0 0 0 0 71 0.002 
1092 3 0.0114967 0.0588836 0.0123674 0 0 0 0.258261 -1.05655 0.948076 0 -0.000164368 0 0 0 0 0 0 0 0 0 0 0 0 0 0 0 0 0 179 0.002 
454 8 0.00353029 0.0715021 0.0111342 0 0 0 0.550819 -1.1231 -1.44801 0 -0.000164368 0 0 0 0 0 0 0 0 0 0 0 0 0 0 0 0 0 103 0.002 
384 2 0.0107874 0.045276 0.0180914 0 0 0 1.00991 -1.50106 4.93822 0 -0.000164368 0 0 0 0 0 0 0 0 0 0 0 0 0 0 0 0 0 182 0.002 
920 9 0.0133096 0.0631171 0.0150558 0 0 0 1.96724 8.10006 -1.9738 -0.091106 -0.0538063 -0.0783114 0 0 0 0 0 0 0 0 1 0 0 0 0 0 0 0 219 0.002 
1187 1 0.0180283 0.0666459 0.0155672 0 0 0 -0.0539713 -0.131371 -1.35051 0 -0.000164368 0 0 0 0 0 0 0 0 0 0 0 0 0 0 0 0 0 180 0.002 
537 3 0.0156476 0.063144 0.0181735 0 0 0 -0.12587 0.668767 0.738758 0.091106 0.0534775 0.0783114 0 0 0 0 0 0 0 0 1 0 0 0 0 0 0 0 104 0.002 
1455 8 0.00422764 0.0695685 0.0174031 0 0 0 0.318744 0.202653 -1.08451 0 -0.000164368 0 0 0 0 0 0 0 0 0 0 0 0 0 0 0 0 0 184 0.002 
1770 4 0.0139035 0.0701962 0.0165786 0 0 0 0.0357144 0.0794173 -0.691679 0 -0.000164368 0 0 0 0 0 0 0 0 0 0 0 0 0 0 0 0 0 63 0.002 
1253 14 0.0179738 0.0723132 0.0165811 0 0 0 0.304488 -0.130949 -0.962807 0 -0.000164368 0 0 0 0 0 0 0 0 0 0 0 0 0 0 0 0 0 187 0.002 
1496 7 0.00486572 0.074606 0.0187024 0 0 0 0.0974762 -0.499442 -0.288912 0 -0.000164368 0 0 0 0 0 0 0 0 0 0 0 0 0 0 0 0 0 162 0.002 
110 1 0.00828576 0.067304 0.0208706 0 0 0 0.449221 -0.257774 -0.636892 0 -0.000164368 0 0 0 0 0 0 0 0 0 0 0 0 0 0 0 0 0 122 0.002 
1219 5 0.0134356 0.0664563 0.0201726 0 0 0 0.288432 -0.163999 -0.446221 0 -0.000164368 0 0 0 0 0 0 0 0 0 0 0 0 0 0 0 0 0 233 0.002 
381 5 0.0164859 0.0703943 0.020795 0 0 0 0.372408 -0.123088 -0.641028 0 -0.000164368 0 0 0 0 0 0 0 0 0 0 0 0 0 0 0 0 0 230 0.002 
903 7 0.0134005 0.073658 0.0204082 0 0 0 0.112868 0.0790289 -0.299989 0.00326006 -0.00403785 0.0017084 0 0 0 0 0 0 1 0 0 0 0 0 0 0 0 0 209 0.002 
2106 3 0.00534201 0.0635056 0.0218127 0 0 0 0.209578 -0.444828 -0.551654 0 -0.000164368 0 0 0 0 0 0 0 0 0 0 0 0 0 0 0 0 0 57 0.002 
125 2 0.0101783 0.0719023 0.022756 0 0 0 0.345604 0.170624 -0.439207 0 -0.000164368 0 0 0 0 0 0 0 0 0 0 0 0 0 0 0 0 0 228 0.002 
941 2 0.00615516 0.0732493 0.0223731 0 0 0 -0.0622164 -0.131229 -0.0248156 -0.000134207 -0.000366507 0.00019833 0 1 0 0 0 0 0 0 0 0 0 0 0 0 0 0 210 0.002 
1797 3 0.00969638 0.0631235 0.0249312 0 0 0 -0.0340013 -0.48624 -1.05549 0 -0.000164368 0 0 0 0 0 0 0 0 0 0 0 0 0 0 0 0 0 124 0.002 
1766 1 0.00355901 0.0662889 0.0249009 0 0 0 -0.0353589 -0.361183 -0.290224 0 -0.000164368 0 0 0 0 0 0 0 0 0 0 0 0 0 0 0 0 0 134 0.002 
651 13 0.00302419 0.0716572 0.0242807 0 0 0 -0.0491955 -0.253787 -0.0294831 0.000134207 3.77709e-05 -0.00019833 0 1 0 0 0 0 0 0 0 0 0 0 0 0 0 0 240 0.002 
481 6 0.0126027 0.0743689 0.025584 0 0 0 -0.0127299 0.0581493 0.0890132 -0.00389627 -0.000926394 -0.000819508 0 0 0 0 0 1 0 0 0 0 0 0 0 0 0 0 200 0.002 
287 5 0.0186505 0.0566037 0.0294318 0 0 0 -1.05491 -0.459308 -0.0660928 0 -0.000164368 0 0 0 0 0 0 0 0 0 0 0 0 0 0 0 0 0 235 0.002 
1278 3 0.00701644 0.0669888 0.0275561 0 0 0 -0.00843562 -0.169706 0.166021 0 -0.000164368 0 0 0 0 0 0 0 0 0 0 0 0 0 0 0 0 0 122 0.002 
2274 6 0.00581994 0.0734415 0.0265691 0 0 0 0.0225168 -0.153895 -0.111521 0 -0.000164368 0 0 0 0 0 0 0 0 0 0 0 0 0 0 0 0 0 41 0.002 
1866 5 0.00407944 0.0625525 0.0296065 0 0 0 0.135922 -0.176028 -0.326829 0 -0.000164368 0 0 0 0 0 0 0 0 0 0 0 0 0 0 0 0 0 106 0.002 
777 4 0.00354321 0.0665658 0.0297674 0 0 0 0.220232 -0.121041 -0.0421763 0 -0.000164368 0 0 0 0 0 0 0 0 0 0 0 0 0 0 0 0 0 185 0.002 
1506 10 0.0134879 0.0678714 0.028518 0 0 0 0.925262 -0.184509 0.34852 0 -0.000164368 0 0 0 0 0 0 0 0 0 0 0 0 0 0 0 0 0 194 0.002 
2247 4 0.0171246 0.070229 0.0286553 0 0 0 0.149875 -0.208686 -0.201278 0 -0.000164368 0 0 0 0 0 0 0 0 0 0 0 0 0 0 0 0 0 52 0.002 
2077 4 0.00311891 0.0706817 0.0288561 0 0 0 -0.198054 -0.203492 -0.0391323 0 -0.000164368 0 0 0 0 0 0 0 0 0 0 0 0 0 0 0 0 0 77 0.002 
1043 5 0.00743894 0.0708199 0.0291785 0 0 0 0.00825248 -0.13894 -0.0219658 0 -0.000164368 0 0 0 0 0 0 0 0 0 0 0 0 0 0 0 0 0 188 0.002 
1722 2 0.0133287 0.0723192 0.0292922 0 0 0 0.193312 -0.254055 0.0754244 -0.00169928 -0.00482772 -0.00723238 0 1 0 0 0 0 0 0 0 0 0 0 0 0 0 0 160 0.002 
542 6 0.00888714 0.0745276 0.0297294 0 0 0 -0.008259 -0.124418 -0.0105534 0 -0.000164368 0 0 0 0 0 0 0 0 0 0 0 0 0 0 0 0 0 256 0.002 
1838 1 0.0166359 0.0746106 0.0293017 0 0 0 0.0827561 0.122117 0.0394785 0 -0.000164368 0 0 0 0 0 0 0 0 0 0 0 0 0 0 0 0 0 132 0.002 
1702 6 0.00976622 0.0627041 0.0302514 0 0 0 -0.276064 -0.911842 -0.686118 0 -0.000164368 0 0 0 0 0 0 0 0 0 0 0 0 0 0 0 0 0 147 0.002 
1711 6 0.0183408 0.0640514 0.0309202 0 0 0 -0.711657 -0.297221 -0.363456 0 -0.000164368 0 0 0 0 0 0 0 0 0 0 0 0 0 0 0 0 0 131 0.002 
1982 3 0.0132572 0.0593053 0.0329546 0 0 0 0.746746 0.250323 -0.00614924 0 -0.000164368 0 0 0 0 0 0 0 0 0 0 0 0 0 0 0 0 0 65 0.002 
483 2 0.00581915 0.0642537 0.03298 0 0 0 -0.29239 -0.233756 0.0988829 0 -0.000164368 0 0 0 0 0 0 0 0 0 0 0 0 0 0 0 0 0 189 0.002 
660 6 0.00798983 0.0679497 0.0328892 0 0 0 -0.0730729 -0.23216 -0.0285189 0 -0.000164368 0 0 0 0 0 0 0 0 0 0 0 0 0 0 0 0 0 240 0.002 
602 2 0.00321748 0.0690987 0.0328558 0 0 0 0.027158 -0.236282 0.00792267 0 -0.000164368 0 0 0 0 0 0 0 0 0 0 0 0 0 0 0 0 0 181 0.002 
2173 8 0.0115088 0.0700765 0.0327494 0 0 0 -0.0535525 -0.172124 0.0798266 0 -0.000164368 0 0 0 0 0 0 0 0 0 0 0 0 0 0 0 0 0 67 0.002 
946 1 0.0153876 0.0687681 0.0324691 0 0 0 0.0259739 -0.0300993 -0.153977 0 -0.000164368 0 0 0 0 0 0 0 0 0 0 0 0 0 0 0 0 0 194 0.002 
1230 7 0.00664658 0.0719698 0.0329726 0 0 0 0.0261927 -0.0619889 0.00788253 0 -0.000164368 0 0 0 0 0 0 0 0 0 0 0 0 0 0 0 0 0 164 0.002 
986 6 0.018615 0.0711563 0.0329026 0 0 0 0.0133343 0.0180523 -0.0183021 -0.00325456 0.00214703 0.000239731 0 0 0 0 0 1 0 0 0 0 0 0 0 0 0 0 196 0.002 
106 2 0.00319137 0.0741694 0.0329638 0 0 0 0.0394561 -0.0933444 -0.0193885 0 -0.000164368 0 0 0 0 0 0 0 0 0 0 0 0 0 0 0 0 0 181 0.002 
1349 4 0.0112194 0.074276 0.0329813 0 0 0 -0.00588199 -0.105189 0.0123107 0 -0.000164368 0 0 0 0 0 0 0 0 0 0 0 0 0 0 0 0 0 214 0.002 
1736 6 0.0149955 0.0728666 0.0328797 0 0 0 -0.0219538 -0.0110602 -0.00525035 0.00169928 0.00449898 0.00723238 0 1 0 0 0 0 0 0 0 0 0 0 0 0 0 0 121 0.002 
216 3 0.00974216 0.0127086 0.0562519 0 0 0 -1.78662 16.0411 -2.4316 0 -0.000164368 0 0 0 0 0 0 0 0 0 0 0 0 0 0 0 0 0 27 0.002 
718 4 0.00366252 8.29476e-05 0.0572438 0 0 0 6.70858 30.1936 -1.97975 0 -0.000164368 0 0 0 0 0 0 0 0 0 0 0 0 0 0 0 0 0 171 0.002 
2364 8 0.00318674 0.0757855 -0.0323514 0 0 0 -0.0940612 0.147429 0.157608 0 -0.000164368 0 0 0 0 0 0 0 0 0 0 0 0 0 0 0 0 0 22 0.002 
1660 10 0.00671546 0.0779386 -0.0329297 0 0 0 -0.0702425 0.16362 0.0443259 0 -0.000164368 0 0 0 0 0 0 0 0 0 0 0 0 0 0 0 0 0 120 0.002 
1520 7 0.0143302 0.0785889 -0.0321721 0 0 0 -0.29047 -1.22092 -0.661541 0 -0.000164368 0 0 0 0 0 0 0 0 0 0 0 0 0 0 0 0 0 139 0.002 
2029 10 0.00324119 0.0801816 -0.0329506 0 0 0 0.0516134 0.246009 0.0268297 0 -0.000164368 0 0 0 0 0 0 0 0 0 0 0 0 0 0 0 0 0 88 0.002 
2474 3 0.0179921 0.0800311 -0.0330067 0 0 0 -0.351458 0.120751 0.250051 -0.00085025 0.0138873 -0.01431 0 0 0 0 0 0 0 0 0 0 0 0 0 0 0 0 2 0.002 
1980 1 0.0142884 0.0828226 -0.0328594 0 0 0 -0.494416 -0.817829 0.223002 0 -0.000164368 0 0 0 0 0 0 0 0 0 0 0 0 0 0 0 0 0 75 0.002 
214 14 0.00323307 0.0849003 -0.0331049 0 0 0 0.0760183 0.902695 0.0247125 -0.0315829 -0.00295891 0.269045 0 0 0 0 0 0 0 0 0 0 0 0 0 1 0 0 128 0.002 
2025 3 0.00721776 0.0844925 -0.0327627 0 0 0 0.169384 -0.245366 0.0586095 0 -0.000164368 0 0 0 0 0 0 0 0 0 0 0 0 0 0 0 0 0 93 0.002 
2019 4 0.0110791 0.0857252 -0.0325144 0 0 0 0.394738 -0.900379 0.468637 0 -0.000164368 0 0 0 0 0 0 0 0 0 0 0 0 0 0 0 0 0 74 0.002 
1322 2 0.0185499 0.0794134 -0.0121688 0 0 0 -1.15194 -0.694909 -2.12221 0 -0.000164368 0 0 0 0 0 0 0 0 0 0 0 0 0 0 0 0 0 155 0.002 
1718 3 0.01506 0.0870575 -0.0325123 0 0 0 -0.183571 -0.565587 0.535086 0.0214405 -0.0189946 -0.00903507 0 0 1 0 0 0 0 0 0 0 0 0 0 0 0 0 107 0.002 
1817 5 0.0030706 0.090337 -0.0329197 0 0 0 0.0491059 -0.0138843 0.0230527 0 -0.000164368 0 0 0 0 0 0 0 0 0 0 0 0 0 0 0 0 0 105 0.002 
1812 5 0.00702383 0.0889035 -0.0328249 0 0 0 0.211449 0.157955 0.368431 3.47787e-05 -7.22419e-05 -5.07786e-06 0 0 0 0 1 0 0 0 0 0 0 0 0 0 0 0 119 0.002 
2260 7 0.00661942 0.0928728 -0.0328852 0 0 0 0.000600387 0.260518 0.132909 0.00233972 -0.000600295 -0.000263086 0 0 0 0 1 0 1 0 0 0 0 0 0 0 0 0 47 0.002 
2377 8 0.0177236 0.0909627 -0.0329665 0 0 0 0.524086 -0.39731 -0.15988 0 -0.000164368 0 0 0 0 0 0 0 0 0 0 0 0 0 0 0 0 0 9 0.002 
113 8 0.00304501 0.0946349 -0.0327557 0 0 0 -0.117182 0.297002 0.260457 -0.0023745 0.000179433 0.000268164 0 0 0 0 0 0 1 0 0 0 0 0 0 0 0 0 207 0.002 
1275 2 0.0131349 0.093324 -0.0329981 0 0 0 -0.185078 0.066559 0.14728 -0.00724086 -0.00323371 -0.00346667 0 1 0 0 0 0 0 0 0 0 0 0 0 0 0 0 168 0.002 
2291 4 0.00576734 0.0975621 -0.0330044 0 0 0 0.211782 -0.0363817 0.029661 0.00253353 -0.00349092 -0.00244825 0 0 0 1 0 0 0 0 0 0 0 0 0 0 0 0 50 0.002 
1622 4 0.00937192 0.0957811 -0.0329234 0 0 0 0.322334 0.0601828 -0.178187 0.000903587 0.0012475 0.001477 0 0 0 1 0 0 0 0 0 0 0 0 0 0 0 0 148 0.002 
1151 7 0.0164118 0.0955908 -0.0330138 0 0 0 -0.0005816 -0.0935346 -0.0599184 -0.022642 -0.00598083 -0.00294025 0 1 0 0 0 0 2 0 0 0 0 0 0 0 0 0 208 0.002 
1084 5 0.00968582 0.0997728 -0.0329406 0 0 0 0.23608 0.083666 -0.158462 0.011787 -0.00532846 -0.000873089 0 0 0 0 1 0 0 0 0 0 0 0 0 0 0 0 185 0.002 
1211 3 0.0133827 0.0982448 -0.0330029 0 0 0 -0.0249764 -0.135042 -0.013937 0.00206979 -0.00936003 -0.00466856 0 0 1 0 0 0 0 0 0 0 0 0 0 0 0 0 29 0.002 
2088 2 0.00298751 0.100219 -0.0319473 0 0 0 0.00592522 -0.190903 -0.00786592 0.00275996 0.00330451 0.00142948 0 4 0 1 0 0 0 0 0 0 0 0 0 0 0 0 68 0.002 
1189 5 0.00642637 0.102055 -0.0328097 0 0 0 -0.00774325 -0.219094 0.0231941 0.00632446 -0.00328969 -0.00121159 0 1 0 0 1 0 0 0 0 0 0 0 0 0 0 0 153 0.002 
2366 3 0.0166195 0.100575 -0.0329759 0 0 0 -0.067067 0.0856129 0.0582503 0.00188569 0.00644103 -0.0073885 0 0 1 0 0 0 0 0 0 0 0 0 0 0 0 0 29 0.002 
610 5 0.00299134 0.104054 -0.0330047 0 0 0 0.0297128 -0.133151 0.0322365 0.00308324 -0.00274946 -0.00139502 0 1 0 0 1 0 0 0 0 0 0 0 0 0 0 0 167 0.002 
531 4 0.0134768 0.103868 -0.0327281 0 0 0 -0.0036009 -0.00732202 0.0206571 -0.000629249 0.00316125 0.000408629 0 0 0 2 0 0 0 0 0 0 0 0 0 0 0 0 177 0.002 
1827 12 0.00955325 0.104535 -0.0330151 0 0 0 0.0213873 -0.122636 -0.0193682 0.00160479 -0.000318899 0.00921956 0 0 0 1 1 0 0 0 0 0 0 2 0 0 0 0 160 0.002 
1065 3 0.0174047 0.104507 -0.0329988 0 0 0 -0.0142905 -0.08222 0.0913553 0.00438759 0.00159021 0.00350837 0 0 3 1 0 0 0 0 0 0 0 0 0 0 0 0 219 0.002 
461 4 0.00303717 0.108018 -0.032988 0 0 0 0.049224 -0.0475168 0.0766794 -0.00153113 -0.00111298 -0.00158558 0 0 0 0 1 0 0 0 0 0 0 0 0 0 0 0 178 0.002 
1110 1 0.00705529 0.108004 -0.0330061 0 0 0 0.00516134 -0.0102787 -0.0104675 0.000573948 2.95099e-05 0.000270734 1 0 0 0 0 0 0 0 0 0 0 0 0 0 0 0 159 0.002 
794 1 0.011476 0.108015 -0.0330111 0 0 0 -0.0753517 -0.0076751 0.0304101 0.0024227 -0.00315812 0.00275719 1 0 0 0 0 0 0 0 0 0 0 1 0 0 0 0 145 0.002 
1824 6 0.0154655 0.107997 -0.0329903 0 0 0 -0.0153045 -0.0122508 0.0849669 0.00213865 -0.00183645 0.00217223 1 0 1 0 0 1 0 0 0 0 0 0 0 0 0 0 126 0.002 
1884 4 0.0183871 0.0764854 -0.0311409 0 0 0 -0.0426202 -0.201904 -0.910415 0 -0.000164368 0 0 0 0 0 0 0 0 0 0 0 0 0 0 0 0 0 130 0.002 
1761 2 0.00933134 0.0811757 -0.030968 0 0 0 0.107086 0.0389945 0.961074 0 -0.000164368 0 0 0 0 0 0 0 0 0 0 0 0 0 0 0 0 0 78 0.002 
1615 6 0.00435533 0.0832837 -0.0297813 0 0 0 0.782227 -0.0723972 -0.347482 0.0350315 -0.0412308 0.238895 0 0 0 0 0 1 0 0 0 0 0 0 0 1 0 0 152 0.002 
2285 8 0.0185368 0.0881169 -0.0293664 0 0 0 1.02668 -0.129279 0.684133 0 -0.000164368 0 0 0 0 0 0 0 0 0 0 0 0 0 0 0 0 0 27 0.002 
288 8 0.00951704 0.0889926 -0.02932 0 0 0 1.2999 -0.111657 0.511334 0 -0.000164368 0 0 0 0 0 0 0 0 0 0 0 0 0 0 0 0 0 190 0.002 
512 2 0.013537 0.0898128 -0.0300791 0 0 0 1.34177 0.0863 0.44539 -0.0214405 0.0186659 0.00903507 0 0 1 0 0 0 0 0 0 0 0 0 0 0 0 0 219 0.002 
2424 4 0.00963692 0.0931317 -0.0297731 0 0 0 0.587039 0.188406 0.28 0 -0.000164368 0 0 0 0 0 0 0 0 0 0 0 0 0 0 0 0 0 11 0.002 
2090 5 0.0164143 0.092553 -0.029504 0 0 0 1.67108 0.487054 0.00288817 0 -0.000164368 0 0 0 0 0 0 0 0 0 0 0 0 0 0 0 0 0 86 0.002 
2161 7 0.0030385 0.0973134 -0.0292124 0 0 0 -0.0158766 -0.070285 0.200023 -0.0023145 -0.00188524 -0.0010912 0 1 0 0 0 0 2 0 0 0 0 0 0 0 0 0 55 0.002 
1423 1 0.0069127 0.096057 -0.0290497 0 0 0 0.341559 0.155038 0.527193 -0.000604655 -0.00354811 -0.000526309 1 0 0 0 0 0 0 0 0 0 0 0 0 0 0 0 136 0.002 
1495 2 0.0108453 0.0976888 -0.0297333 0 0 0 0.0953901 0.160343 -0.0156666 -0.00217987 -0.00150923 -0.00205589 0 0 0 1 1 0 0 0 0 0 0 0 0 0 0 0 114 0.002 
42 2 0.0145086 0.0960982 -0.0295559 0 0 0 -0.0795248 -0.221687 -0.287591 3.39826e-05 0.00649288 0.028002 0 0 0 0 0 0 1 0 0 0 0 0 0 0 0 0 68 0.002 
2425 10 0.00603499 0.09994 -0.0293928 0 0 0 0.00478974 -0.010098 0.0396199 0.00230458 -0.00503265 -0.00460531 1 1 0 0 0 0 1 0 0 3 0 0 0 0 0 0 26 0.002 
661 7 0.0176938 0.0986488 -0.029647 0 0 0 -0.0853451 0.117724 0.0190464 -0.0101742 -0.0148903 0.0013893 0 0 1 0 0 0 2 0 0 0 0 0 0 0 0 0 185 0.002 
644 4 0.00925848 0.102233 -0.0297932 0 0 0 0.0773181 -0.0190464 0.06188 0.00165399 -0.0163702 0.00446673 0 0 0 2 0 0 0 0 0 1 0 1 0 0 0 0 197 0.002 
2185 1 0.0133583 0.10086 -0.0300061 0 0 0 -0.103294 0.123327 -0.103551 -0.00267265 0.00734579 0.0108405 0 0 1 0 0 0 0 0 0 0 0 0 0 0 0 0 61 0.002 
978 1 0.0054526 0.105645 -0.0302031 0 0 0 -0.0866273 0.0529967 0.057739 -0.000239823 -0.000199414 -0.00152239 0 0 0 0 0 0 0 0 0 0 0 0 0 0 0 0 235 0.002 
2196 6 0.00907231 0.107997 -0.02957 0 0 0 -0.0262604 -0.0227409 0.0088534 0.00131686 0.000573872 0.00287226 1 0 0 0 0 3 0 0 0 0 0 0 0 0 0 0 81 0.002 
1538 8 0.0130575 0.108004 -0.0293096 0 0 0 -0.0335722 -0.0381893 0.103368 -0.00438264 -0.000533484 -0.00248228 0 0 0 0 0 1 0 1 0 0 0 0 0 0 0 0 167 0.002 
1715 2 0.0169786 0.107276 -0.0293623 0 0 0 -0.0509533 -0.0816635 0.161892 -0.00646959 0.00529355 -0.000497338 0 2 0 0 0 1 0 1 0 0 0 0 0 0 0 0 135 0.002 
1734 1 0.00471291 0.0765432 -0.0275591 0 0 0 0.027685 -0.211774 0.660427 0 -0.000164368 0 0 0 0 0 0 0 0 0 0 0 0 0 0 0 0 0 125 0.002 
2446 5 0.0135362 0.0758313 -0.0273448 0 0 0 0.1823 -0.937155 0.1337 0 -0.000164368 0 0 0 0 0 0 0 0 0 0 0 0 0 0 0 0 0 1 0.002 
2121 2 0.0175646 0.0837337 -0.0287667 0 0 0 -0.914515 -0.037129 0.274364 -0.0074893 0.00602625 0.00117231 0 1 0 0 0 0 0 0 0 0 0 0 0 0 0 0 47 0.002 
1844 2 0.0085277 0.0854654 -0.0274049 0 0 0 1.65606 -1.27317 -0.35133 0 -0.000164368 0 0 0 0 0 0 0 0 0 0 0 0 0 0 0 0 0 107 0.002 
164 13 0.0149303 0.0866483 -0.028015 0 0 0 -0.388927 1.27568 0.59102 0.0074893 -0.00635498 -0.00117231 0 1 0 0 0 0 0 0 0 0 0 0 0 0 0 0 237 0.002 
1719 3 0.0041445 0.0868798 -0.0279043 0 0 0 1.19809 -0.269912 -0.488844 0 -0.000164368 0 0 0 0 0 0 0 0 0 0 0 0 0 0 0 0 0 103 0.002 
1367 1 0.00358523 0.0909945 -0.0287919 0 0 0 0.213557 0.0190196 0.0798759 0 -0.000164368 0 0 0 0 0 0 0 0 0 0 0 0 0 0 0 0 0 147 0.002 
227 1 0.0128851 0.0929514 -0.02726 0 0 0 1.0235 0.787838 0.240708 0 -0.000164368 0 0 0 0 0 0 0 0 0 0 0 0 0 0 0 0 0 213 0.002 
1814 6 0.00299025 0.100636 -0.0269247 0 0 0 0.0146181 0.078829 0.0651921 -0.00139835 -0.000205981 -0.00323661 0 0 0 0 0 0 0 0 0 1 0 0 0 0 0 0 108 0.002 
2304 3 0.00643365 0.103252 -0.0271428 0 0 0 0.131083 0.0884862 0.0631267 0.000390757 -0.000620036 -0.000371578 0 0 1 0 0 0 0 0 0 0 0 0 0 0 0 0 54 0.002 
573 4 0.0168697 0.102492 -0.0289294 0 0 0 -0.0269585 -0.124509 0.0796969 0.00640333 0.0113978 0.000466099 0 0 0 0 0 0 1 0 0 0 0 0 0 0 0 0 183 0.002 
181 1 0.0101468 0.105042 -0.027102 0 0 0 0.0372307 -0.0497608 -0.127689 -0.000840305 0.010352 0.00748035 0 0 0 1 0 1 0 0 0 0 0 0 0 0 0 0 212 0.002 
687 6 0.0146108 0.105186 -0.0269292 0 0 0 -0.102481 -0.0509179 0.16412 -0.00501988 -0.00236952 -0.00102767 0 1 0 0 0 1 0 0 0 0 0 0 0 0 0 0 180 0.002 
2299 3 0.0030015 0.107922 -0.0279769 0 0 0 0.0158975 -0.0402556 0.0613696 0 -0.000164368 0 0 0 0 0 0 0 0 0 0 0 0 0 0 0 0 0 47 0.002 
95 5 0.0163718 0.111 -0.0278657 0 0 0 2.50749e-25 8.88519e-12 9.14151e-26 -4.01067e-26 1.77636e-15 8.45211e-26 0 0 0 0 0 0 0 0 0 0 0 0 0 0 0 0 36 0.002 
1605 1 0.0174216 0.0773242 -0.0251309 0 0 0 0.121314 -0.0175446 -0.271511 0 -0.000164368 0 0 0 0 0 0 0 0 0 0 0 0 0 0 0 0 0 153 0.002 
183 3 0.00424861 0.0807749 -0.0267187 0 0 0 0.222489 -1.04643 -0.768595 0.0114955 -0.0185195 0.0177606 0 0 0 0 0 1 0 0 0 0 0 0 0 0 0 0 134 0.002 
1420 11 0.0174997 0.0841349 -0.0245028 0 0 0 -0.153013 0.116062 1.22544 0 -0.000164368 0 0 0 0 0 0 0 0 0 0 0 0 0 0 0 0 0 197 0.002 
788 5 0.00694347 0.091975 -0.0259334 0 0 0 0.22293 -0.00109184 0.127348 0.00113914 -0.00317776 -0.000725928 0 0 0 0 1 0 0 0 0 0 0 0 0 0 0 0 149 0.002 
1016 9 0.00309566 0.094605 -0.0262873 0 0 0 -0.000739179 -0.0414802 0.385662 4.80639e-05 -0.00202967 0.00225875 0 0 0 0 0 0 1 0 1 0 0 0 0 0 0 0 188 0.002 
1810 5 0.0183472 0.0942147 -0.0261866 0 0 0 -0.756962 -0.461864 -1.00603 0 -0.000164368 0 0 0 0 0 0 0 0 0 0 0 0 0 0 0 0 0 109 0.002 
1941 8 0.0101641 0.0962462 -0.0260157 0 0 0 -0.118973 0.846654 -0.832737 0 -0.000164368 0 0 0 0 0 0 0 0 0 0 0 0 0 0 0 0 0 102 0.002 
1355 5 0.00678079 0.0988075 -0.0256592 0 0 0 -0.00709174 0.0683295 0.111175 0.0053696 -0.0049001 0.00821295 0 0 0 0 2 0 0 0 0 1 0 0 0 0 0 0 139 0.002 
1599 2 0.014626 0.0989298 -0.0267232 0 0 0 -0.175068 -0.245346 -0.259475 0 -0.000164368 0 0 0 0 0 0 0 0 0 0 0 0 0 0 0 0 0 142 0.002 
2375 2 0.010851 0.100274 -0.0266935 0 0 0 -0.145841 0.071019 0.227375 -0.000371158 -0.00404534 -0.00398476 0 2 0 1 0 0 0 0 0 0 0 0 0 0 0 0 18 0.002 
1145 5 0.0168081 0.101568 -0.0246393 0 0 0 -0.0863416 -0.393612 0.119345 -0.000103039 -0.000771472 0.000287773 0 0 0 0 1 0 0 0 0 0 0 0 0 0 0 0 166 0.002 
697 2 0.00299675 0.104593 -0.0256171 0 0 0 0.0342801 0.0222185 0.112632 -0.000374901 -0.0126171 -0.00990807 0 1 1 0 0 0 0 0 0 0 0 0 0 0 0 0 205 0.002 
1207 5 0.00684809 0.108003 -0.0262552 0 0 0 -0.093446 0.0508543 -0.0480628 0.00255577 -0.000830039 0.000830995 0 0 0 0 1 1 0 0 0 0 0 0 0 0 0 0 162 0.002 
1436 13 0.0172274 0.108016 -0.0250427 0 0 0 -0.0215586 -0.0405321 0.0930025 0.00186843 -0.00160729 -0.0002833 0 0 0 0 0 0 0 0 0 0 0 0 3 0 0 0 42 0.002 
599 6 0.00986809 0.0813178 -0.0246402 0 0 0 1.34163 -5.07164 -1.47026 0 -0.000164368 0 0 0 0 0 0 0 0 0 0 0 0 0 0 0 0 0 77 0.002 
521 4 0.00367236 0.0879266 -0.024017 0 0 0 0.668795 3.33865 -3.62825 0 -0.000164368 0 0 0 0 0 0 0 0 0 0 0 0 0 0 0 0 0 185 0.002 
2243 1 0.00320984 0.0928875 -0.0226864 0 0 0 0.113778 -0.231567 0.413224 2.98245e-05 -0.000225454 5.94354e-05 0 0 0 0 0 0 0 0 1 0 0 0 0 0 0 0 60 0.002 
2257 4 0.0113828 0.09348 -0.0231645 0 0 0 0.00866459 0.444387 0.467945 0.115804 0.0371642 -0.0642255 0 0 0 2 0 0 0 0 0 0 0 0 0 0 0 0 25 0.002 
1576 1 0.00629778 0.095301 -0.0238247 0 0 0 0.118423 0.0538457 0.0949885 -0.0016072 -0.00421069 0.0066756 0 0 0 0 2 0 0 0 0 0 0 0 0 0 0 0 96 0.002 
301 3 0.0156267 0.0965118 -0.0236895 0 0 0 0.25132 -0.279299 -0.290462 0 -0.000164368 0 0 0 0 0 0 0 0 0 0 0 0 0 0 0 0 0 210 0.002 
1856 3 0.00304973 0.0978932 -0.0238453 0 0 0 0.0329009 0.1378 0.0147022 -0.000763811 0.000275503 -0.0013397 0 0 1 0 0 0 0 0 0 0 0 0 0 0 0 0 110 0.002 
945 2 0.0108528 0.0987649 -0.0229715 0 0 0 -0.215294 0.0187064 0.124527 0.00468873 0.0140545 -0.00249728 0 2 0 0 0 0 0 0 0 0 0 0 0 0 0 0 66 0.002 
258 2 0.00450863 0.10161 -0.0233399 0 0 0 0.0954669 0.0866751 0.0901751 -0.0226773 0.0257798 -0.0284421 0 2 0 0 0 0 0 0 0 0 0 0 0 0 0 0 199 0.002 
191 1 0.00854641 0.1019 -0.023873 0 0 0 -0.14626 0.0994271 0.300144 0.00223549 -0.00155387 0.00519681 1 2 0 0 1 0 0 0 0 0 0 0 0 0 0 0 198 0.002 
2014 4 0.0124486 0.103056 -0.024328 0 0 0 -0.0190568 0.130217 0.202143 0.00351524 -0.000646831 0.00265661 0 1 0 1 0 1 0 0 0 0 0 0 0 0 0 0 101 0.002 
2035 4 0.00633041 0.10519 -0.0234781 0 0 0 -0.12441 0.122054 0.033248 -0.00423557 -0.0121718 0.00147027 1 0 0 1 1 0 0 0 0 0 0 0 0 0 0 0 91 0.002 
1688 6 0.0139811 0.106605 -0.0232233 0 0 0 0.0144596 0.064301 -0.0216562 -0.0156377 -0.0122384 0.0105221 0 0 0 0 0 1 0 0 0 0 0 0 1 0 0 0 119 0.002 
2044 1 0.0175895 0.105017 -0.0224376 0 0 0 -0.104839 -0.0841773 0.179125 -0.00282519 -0.00336781 1.43956e-05 1 0 0 0 0 0 0 0 0 0 0 0 1 0 0 0 71 0.002 
933 1 0.0030292 0.108013 -0.0235799 0 0 0 -0.0762824 0.0383481 0.0243292 -0.000536842 -0.000555514 -0.00565205 1 1 0 0 0 0 0 0 0 0 0 0 0 0 0 0 170 0.002 
589 1 0.0104265 0.108001 -0.0243982 0 0 0 -0.0350422 -0.00638214 -0.0925174 -3.73841e-05 -0.000294542 2.50826e-05 0 0 0 0 0 1 0 0 0 0 0 0 0 0 0 0 63 0.002 