ITEM: TIMESTEP
20000000
ITEM: NUMBER OF ATOMS
6676
ITEM: BOX BOUNDS ff ff ff
-0.01 0.45
-0.15 0.15
-0.08 0.1
ITEM: ATOMS id type x y z ix iy iz vx vy vz fx fy fz c_cc_1 c_cc_2 c_cc_3 c_cc_4 c_cc_5 c_cc_6 c_cc_7 c_cc_8 c_cc_9 c_cc_10 c_cc_11 c_cc_12 c_cc_13 c_cc_14 c_cc_15 c_cc_16 f_fppacc radius 
6043 2 0.00251698 -0.0108838 -0.0600144 0 0 0 -0.0120798 -1.87837e-08 -1.7358e-09 -0.000138222 -3.01296e-10 -1.31704e-10 0 0 0 0 0 0 0 0 0 0 0 0 0 0 0 0 42 0.00113333 
5581 2 0.0157517 -0.00885288 -0.0601797 0 0 0 -2.3872e-06 -9.21025e-14 -9.93952e-13 -7.8272e-18 1.38778e-17 1.11022e-16 0 0 0 0 0 0 0 0 0 0 0 0 0 0 0 0 76 0.00113333 
4254 1 0.0184714 -0.00393431 -0.0606354 0 0 0 -8.41966e-07 3.09462e-13 3.33963e-12 -4.25457e-22 0 0 0 0 0 0 0 0 0 0 0 0 0 0 0 0 0 0 0 0.001 
2974 1 0.0165162 -0.00282458 -0.0607383 0 0 0 -2.48707e-06 1.29021e-13 1.39236e-12 -1.04407e-19 0 0 0 0 0 0 0 0 0 0 0 0 0 0 0 0 0 0 24 0.001 
7618 1 0.00849711 -0.0169144 -0.058338 0 0 0 7.76993e-06 2.79059e-13 9.80785e-13 3.24999e-19 0 0 0 0 0 0 0 0 0 0 0 0 0 0 0 0 0 0 4 0.001 
4320 1 0.00810172 -0.0224094 -0.0521455 0 0 0 5.8857 -13.4239 9.90791 0 -2.0546e-05 0 0 0 0 0 0 0 0 0 0 0 0 0 0 0 0 0 69 0.001 
415 1 0.0104708 -0.0150802 -0.0588598 0 0 0 4.10127e-06 -9.05094e-13 -3.18107e-12 1.01792e-17 0 0 0 0 0 0 0 0 0 0 0 0 0 0 0 0 0 0 1 0.001 
3133 2 0.0132807 -0.0131521 -0.0594084 0 0 0 0.000115066 0.000749615 -0.00108103 -5.09886e-08 -0.000148189 6.4225e-05 0 0 0 0 0 0 0 0 0 0 0 0 0 0 0 0 1 0.00113333 
6850 2 0.0158453 -0.0144579 -0.0590369 0 0 0 2.10777e-06 3.46052e-13 1.21623e-12 -1.51126e-17 0 0 0 0 0 0 0 0 0 0 0 0 0 0 0 0 0 0 0 0.00113333 
3718 1 0.0183658 -0.0138868 -0.0591994 0 0 0 -4.716e-07 -6.8791e-13 -2.41776e-12 1.29609e-18 0 0 0 0 0 0 0 0 0 0 0 0 0 0 0 0 0 0 66 0.001 
2886 3 0.00637166 -0.0206483 -0.0532218 0 0 0 8.37055 -15.0725 7.71057 0 -4.17556e-05 0 0 0 0 0 0 0 0 0 0 0 0 0 0 0 0 0 317 0.00126667 
5364 1 0.00612295 -0.0121897 -0.0596823 0 0 0 2.99557e-07 -8.34652e-13 -2.9335e-12 -6.40749e-19 0 0 0 0 0 0 0 0 0 0 0 0 0 0 0 0 0 0 47 0.001 
5435 1 0.00721869 -0.0102467 -0.0576371 0 0 0 0.310667 -5.86933 0.56119 0 -2.0546e-05 0 0 0 0 0 0 0 0 0 0 0 0 0 0 0 0 0 54 0.001 
5384 3 0.0146756 -0.016024 -0.0555707 0 0 0 1.83145 -11.5373 7.40967 0.120202 0.226232 0.0610179 0 0 1 0 0 0 0 0 0 0 0 0 0 0 0 0 109 0.00126667 
3270 1 0.00741317 -0.0291215 -0.0533525 0 0 0 -5.65576e-06 7.65096e-14 1.53649e-13 -7.19462e-24 0 0 0 0 0 0 0 0 0 0 0 0 0 0 0 0 0 0 19 0.001 
7127 1 0.00619507 -0.0245888 -0.0531659 0 0 0 2.66449 -12.2664 8.39535 0 -2.0546e-05 0 0 0 0 0 0 0 0 0 0 0 0 0 0 0 0 0 16 0.001 
7831 6 0.011058 -0.0185202 -0.054424 0 0 0 4.07752 0.180397 -0.161519 0 -9.51205e-05 0 0 0 0 0 0 0 0 0 0 0 0 0 0 0 0 0 2 0.00166667 
2196 2 0.00317629 -0.0236172 -0.0535896 0 0 0 2.89746 -15.9801 6.51276 0 -2.99089e-05 0 0 0 0 0 0 0 0 0 0 0 0 0 0 0 0 0 143 0.00113333 
7069 1 0.0131591 -0.017511 -0.0557418 0 0 0 -0.509679 -6.37814 0.0604867 -0.120202 -0.226294 -0.0610179 0 0 1 0 0 0 0 0 0 0 0 0 0 0 0 0 21 0.001 
5388 9 0.00495082 -0.0118661 -0.0554818 0 0 0 0.135483 -2.68493 -1.04465 0 -0.000181359 0 0 0 0 0 0 0 0 0 0 0 0 0 0 0 0 0 187 0.00206667 
4878 1 0.0121809 -0.0146926 -0.0529179 0 0 0 2.74379 -5.91714 1.7305 0 -2.0546e-05 0 0 0 0 0 0 0 0 0 0 0 0 0 0 0 0 0 73 0.001 
2387 1 0.0124111 -0.0336527 -0.0507 0 0 0 2.47639e-06 1.24296e-12 1.64595e-12 1.03009e-17 0 0 0 0 0 0 0 0 0 0 0 0 0 0 0 0 0 0 63 0.001 
258 1 0.00215799 -0.0304683 -0.0526819 0 0 0 -1.91954e-06 1.7506e-12 3.51568e-12 5.112e-18 0 0 0 0 0 0 0 0 0 0 0 0 0 0 0 0 0 0 1 0.001 
2106 4 0.0168309 -0.0323924 -0.0515842 0 0 0 3.65762e-14 -1.53192e-14 -2.40247e-14 3.86312e-14 0 0 0 0 0 0 0 0 0 0 0 0 0 0 0 0 0 0 2 0.0014 
5001 2 0.00411959 -0.0257828 -0.0517214 0 0 0 1.05523 -1.95515 1.45728 0 -2.99089e-05 0 0 0 0 0 0 0 0 0 0 0 0 0 0 0 0 0 87 0.00113333 
4916 4 0.00776919 -0.0174319 -0.0539242 0 0 0 0.118663 -2.05867 -2.07368 0 -5.63783e-05 0 0 0 0 0 0 0 0 0 0 0 0 0 0 0 0 0 128 0.0014 
3954 1 0.00306575 -0.0382716 -0.047212 0 0 0 -8.41803e-07 8.44165e-13 1.11785e-12 5.10621e-18 0 0 0 0 0 0 0 0 0 0 0 0 0 0 0 0 0 0 19 0.001 
598 2 0.011164 -0.0387124 -0.0468791 0 0 0 2.6353e-06 -2.70391e-13 -3.58047e-13 -1.35705e-18 0 -5.55112e-17 0 0 0 0 0 0 0 0 0 0 0 0 0 0 0 0 21 0.00113333 
2581 1 0.0174762 -0.0374711 -0.0478165 0 0 0 1.74951e-06 -1.17333e-12 -1.55374e-12 1.0442e-17 0 0 0 0 0 0 0 0 0 0 0 0 0 0 0 0 0 0 2 0.001 
6939 1 0.0065965 -0.0345959 -0.0499877 0 0 0 1.36766e-06 2.54227e-12 3.36651e-12 1.03685e-17 0 0 0 0 0 0 0 0 0 0 0 0 0 0 0 0 0 0 0 0.001 
3056 5 0.00806751 -0.00155676 -0.0508362 0 0 0 -0.196853 -2.96802 -2.57904 0 -7.40691e-05 0 0 0 0 0 0 0 0 0 0 0 0 0 0 0 0 0 271 0.00153333 
7794 1 0.00210117 -0.042045 -0.044038 0 0 0 7.13857e-07 4.44707e-13 4.05405e-13 -1.02312e-17 0 0 0 0 0 0 0 0 0 0 0 0 0 0 0 0 0 0 1 0.001 
4196 1 0.0167551 -0.0416759 -0.0444429 0 0 0 -3.35489e-06 -7.83709e-07 9.15546e-07 3.58225e-07 1.34158e-07 -5.34841e-08 0 0 0 0 0 0 0 0 0 0 0 0 0 0 0 0 91 0.001 
1232 1 0.00670093 -0.0390029 -0.0466597 0 0 0 3.26675e-06 1.36144e-12 1.80284e-12 2.03193e-19 0 0 0 0 0 0 0 0 0 0 0 0 0 0 0 0 0 0 56 0.001 
4824 1 0.0141115 -0.0390535 -0.0466215 0 0 0 3.74785e-07 1.25158e-11 2.00375e-11 -1.94179e-13 8.80596e-13 -2.18017e-12 0 0 0 0 0 0 0 0 0 0 0 0 0 0 0 0 0 0.001 
3777 1 0.00835577 -0.0324743 -0.0438319 0 0 0 -0.397027 -1.87502 0.858025 0 -2.0546e-05 0 0 0 0 0 0 0 0 0 0 0 0 0 0 0 0 0 97 0.001 
3420 1 0.0174014 -0.0429492 -0.043046 0 0 0 3.30848e-06 7.64717e-07 -4.78862e-07 -3.58371e-07 -3.26934e-08 1.25651e-07 0 0 0 0 0 0 0 0 0 0 0 0 0 0 0 0 0 0.001 
7799 3 0.0036033 -0.0555941 -0.0173971 0 0 0 6.45801 -15.6154 53.0965 0 -4.17556e-05 0 0 0 0 0 0 0 0 0 0 0 0 0 0 0 0 0 0 0.00126667 
3555 2 0.0171031 -0.041448 -0.0415517 0 0 0 2.66173 -3.33384 4.1657 -0.00178243 0.0024951 0.00254952 0 0 0 0 0 0 0 0 0 0 0 0 0 0 0 0 109 0.00113333 
6922 2 0.0120444 -0.0116723 -0.0449073 0 0 0 0.547493 -10.2991 -4.8966 0 -2.99089e-05 0 0 0 0 0 0 0 0 0 0 0 0 0 0 0 0 0 58 0.00113333 
5081 1 0.00140713 -0.0485993 -0.0368479 0 0 0 0.00394928 -3.0717e-12 -2.87427e-12 -1.63542e-17 2.94903e-17 -3.16587e-17 0 0 0 0 0 0 0 0 0 0 0 0 0 0 0 0 5 0.001 
2137 1 0.0143266 -0.0472515 -0.0383267 0 0 0 4.40351e-07 4.47837e-12 4.08257e-12 -5.20784e-18 0 0 0 0 0 0 0 0 0 0 0 0 0 0 0 0 0 0 93 0.001 
4223 1 0.00709729 -0.0492647 -0.0316864 0 0 0 0.452072 -2.35765 4.50955 0 -2.0546e-05 0 0 0 0 0 0 0 0 0 0 0 0 0 0 0 0 0 126 0.001 
2950 1 0.0123131 -0.0375221 -0.0351827 0 0 0 1.08544 -1.17787 1.81666 0 -2.0546e-05 0 0 0 0 0 0 0 0 0 0 0 0 0 0 0 0 0 88 0.001 
2858 3 0.0068417 -0.0183206 -0.034271 0 0 0 0.264976 -1.46487 -0.0289725 0 -4.17556e-05 0 0 0 0 0 0 0 0 0 0 0 0 0 0 0 0 0 178 0.00126667 
7122 4 0.00708325 -0.0499475 -0.0292625 0 0 0 0.154924 -1.3361 2.89585 0 -5.63783e-05 0 0 0 0 0 0 0 0 0 0 0 0 0 0 0 0 0 50 0.0014 
3180 1 0.00802374 -0.054592 -0.0272087 0 0 0 0.00549575 -3.66349e-12 -2.09514e-12 3.3352e-18 3.03577e-18 -5.09575e-18 0 0 0 0 0 0 0 0 0 0 0 0 0 0 0 0 13 0.001 
826 2 0.00542913 -0.0510868 -0.0274057 0 0 0 -0.215142 -1.57641 2.88976 0 -2.99089e-05 0 0 0 0 0 0 0 0 0 0 0 0 0 0 0 0 0 138 0.00113333 
6937 2 0.00302841 -0.0474835 -0.0265771 0 0 0 0.121108 -2.11144 2.26135 0 -2.99089e-05 0 0 0 0 0 0 0 0 0 0 0 0 0 0 0 0 0 37 0.00113333 
4226 6 0.0100303 -0.0498116 -0.0281334 0 0 0 0.352425 -2.96315 2.65551 0 -9.51205e-05 0 0 0 0 0 0 0 0 0 0 0 0 0 0 0 0 0 272 0.00166667 
7528 2 0.015898 -0.0571049 -0.0136615 0 0 0 0.866723 -1.99934 16.8543 0.00128944 0.00903908 0.0113334 0 0 0 0 0 0 0 0 0 0 0 0 0 0 0 0 22 0.00113333 
7092 1 0.00111819 -0.0575075 -0.0196976 0 0 0 6.67108e-07 -2.13444e-12 -8.26885e-13 -6.58345e-19 0 0 0 0 0 0 0 0 0 0 0 0 0 0 0 0 0 0 1 0.001 
7768 2 0.00340074 -0.0579344 0.00256898 0 0 0 7.55118 1.93487 36.6649 0 -2.99089e-05 0 0 0 0 0 0 0 0 0 0 0 0 0 0 0 0 0 2 0.00113333 
4936 1 0.00452515 -0.059862 -0.010324 0 0 0 1.13563e-06 1.53563e-12 2.87058e-13 2.22858e-20 0 0 0 0 0 0 0 0 0 0 0 0 0 0 0 0 0 0 0 0.001 
5673 2 0.00595108 -0.0473326 -0.0120773 0 0 0 0.0853263 -2.89716 2.41831 0 -2.99089e-05 0 0 0 0 0 0 0 0 0 0 0 0 0 0 0 0 0 68 0.00113333 
4282 1 0.00677182 -0.0603473 -0.00772804 0 0 0 -5.61782e-07 1.61218e-12 3.01369e-13 -9.63247e-22 0 0 0 0 0 0 0 0 0 0 0 0 0 0 0 0 0 0 0 0.001 
3441 3 0.0156632 -0.0607377 -0.004984 0 0 0 3.16208e-29 -1.08837e-15 -1.77464e-16 -1.62703e-30 0 0 0 0 0 0 0 0 0 0 0 0 0 0 0 0 0 0 8 0.00126667 
4503 4 0.00752233 -0.000589792 -0.0581979 0 0 0 0.696555 -1.77464 -1.38791 0 -5.63783e-05 0 0 0 0 0 0 0 0 0 0 0 0 0 0 0 0 0 96 0.0014 
253 2 0.0118157 -0.00338377 -0.0476394 0 0 0 1.86539 -6.9985 1.40731 0 -2.99089e-05 0 0 0 0 0 0 0 0 0 0 0 0 0 0 0 0 0 125 0.00113333 
3017 1 0.0109768 -0.00345038 -0.0331732 0 0 0 1.21308 -16.2253 -3.89995 0 -2.0546e-05 0 0 0 0 0 0 0 0 0 0 0 0 0 0 0 0 0 122 0.001 
1593 2 0.0177154 -0.0501871 0.0343251 0 0 0 -3.97555e-07 5.56929e-13 -3.44838e-13 3.73531e-18 0 0 0 0 0 0 0 0 0 0 0 0 0 0 0 0 0 0 11 0.00113333 
5047 2 0.00259206 -0.0369061 0.0428073 0 0 0 1.3874 12.2767 8.26424 0 -2.99089e-05 0 0 0 0 0 0 0 0 0 0 0 0 0 0 0 0 0 96 0.00113333 
5526 2 0.0118461 -0.0307907 0.0498104 0 0 0 -0.0882254 18.48 12.4913 0 -2.99089e-05 0 0 0 0 0 0 0 0 0 0 0 0 0 0 0 0 0 91 0.00113333 
5423 3 0.00523069 -0.00820514 0.0576368 0 0 0 -4.52467 18.1965 -6.9655 0 -4.17556e-05 0 0 0 0 0 0 0 0 0 0 0 0 0 0 0 0 0 111 0.00126667 
6134 1 0.0128544 -0.0339859 0.0504484 0 0 0 -7.6931e-07 -1.31695e-12 1.74392e-12 -1.30708e-20 0 0 0 0 0 0 0 0 0 0 0 0 0 0 0 0 0 0 40 0.001 
814 1 0.00102426 -0.0318856 0.0519761 0 0 0 -9.59719e-08 -1.87663e-12 3.76878e-12 7.01235e-22 0 0 0 0 0 0 0 0 0 0 0 0 0 0 0 0 0 0 0 0.001 
5556 1 0.00296251 -0.032428 0.0516249 0 0 0 -1.15879e-06 4.05105e-12 -5.36445e-12 -8.5182e-20 0 0 0 0 0 0 0 0 0 0 0 0 0 0 0 0 0 0 33 0.001 
594 2 0.0181733 -0.0245952 0.0556064 0 0 0 1.74236e-06 -1.19982e-14 2.40936e-14 1.56366e-17 0 0 0 0 0 0 0 0 0 0 0 0 0 0 0 0 0 0 6 0.00113333 
3740 1 0.0112908 -0.0021247 0.0608031 0 0 0 6.07777e-08 5.85311e-14 -6.31668e-13 1.37196e-21 0 0 0 0 0 0 0 0 0 0 0 0 0 0 0 0 0 0 80 0.001 
270 1 0.000998456 -0.0219806 0.0568962 0 0 0 -1.33796e-17 -6.7536e-18 1.56792e-18 0 0 0 0 0 0 0 0 0 0 0 0 0 0 0 0 0 0 0 0 0.001 
2908 2 0.0184288 -0.0139281 0.0591876 0 0 0 -1.52487e-06 -6.50809e-14 2.28733e-13 -8.32974e-20 2.77556e-17 -1.11022e-16 0 0 0 0 0 0 0 0 0 0 0 0 0 0 0 0 13 0.00113333 
6039 1 0.00352346 -0.00667447 0.058412 0 0 0 -12.4349 16.6339 -0.968366 0.00940047 -0.015682 0.0304264 0 0 0 0 0 0 0 0 0 0 0 0 0 0 0 0 57 0.001 
2537 3 0.00407624 -0.00055548 0.0609815 0 0 0 2.63681e-08 5.46428e-16 1.04676e-14 3.28772e-10 0 0 0 0 0 0 0 0 0 0 0 0 0 0 0 0 0 0 156 0.00126667 
5869 8 0.00955113 -0.0554059 0.0160324 0 0 0 -4.12905 5.26919 21.1344 0 -0.000148473 0 0 0 0 0 0 0 0 0 0 0 0 0 0 0 0 0 220 0.00193333 
1654 1 0.0138889 -0.0100742 0.0600665 0 0 0 8.6725e-07 2.56758e-13 -2.77086e-12 1.28024e-18 0 0 0 0 0 0 0 0 0 0 0 0 0 0 0 0 0 0 2 0.001 
6568 1 0.0139893 0.000682236 -0.0609368 0 0 0 7.56612e-07 -4.98242e-14 5.37674e-13 1.28804e-18 0 0 0 0 0 0 0 0 0 0 0 0 0 0 0 0 0 0 0 0.001 
341 1 0.0059141 0.00411628 -0.0606186 0 0 0 2.08916e-06 -1.74525e-13 1.88342e-12 2.58417e-18 0 0 0 0 0 0 0 0 0 0 0 0 0 0 0 0 0 0 6 0.001 
552 1 0.0168554 0.0043843 -0.0605937 0 0 0 2.31285e-06 1.9445e-13 -2.09847e-12 -2.57565e-18 0 0 0 0 0 0 0 0 0 0 0 0 0 0 0 0 0 0 0 0.001 
4303 2 0.0110121 0.00984993 -0.0600873 0 0 0 1.73597e-06 4.97427e-13 -5.3681e-12 -7.67055e-18 0 0 0 0 0 0 0 0 0 0 0 0 0 0 0 0 0 0 1 0.00113333 
4000 4 0.0169841 0.00995956 -0.0600771 0 0 0 3.08491e-07 -2.6426e-13 2.85186e-12 1.80151e-18 -5.55112e-17 4.44089e-16 0 0 0 0 0 0 0 0 0 0 0 0 0 0 0 0 55 0.0014 
7348 1 0.012531 0.0741549 0.00670178 0 0 0 -0.00162317 0.539206 -1.09738 0 -2.0546e-05 0 0 0 0 0 0 0 0 0 0 0 0 0 0 0 0 0 20 0.001 
7331 3 0.00915727 0.0124881 -0.0595973 0 0 0 -9.16326e-07 -6.30789e-13 2.21698e-12 3.33536e-19 -5.55112e-17 2.22045e-16 0 0 0 0 0 0 0 0 0 0 0 0 0 0 0 0 1 0.00126667 
1125 1 0.0103789 0.01544 -0.0587574 0 0 0 -9.04792e-07 -5.31466e-13 1.86791e-12 2.89258e-21 0 0 0 0 0 0 0 0 0 0 0 0 0 0 0 0 0 0 37 0.001 
720 2 0.0136807 0.0140604 -0.05915 0 0 0 4.89566e-07 1.11735e-12 -3.92706e-12 -3.79791e-18 0 0 0 0 0 0 0 0 0 0 0 0 0 0 0 0 0 0 18 0.00113333 
2717 2 0.0136541 0.0188873 -0.0577766 0 0 0 1.16407e-06 -1.22097e-12 4.29127e-12 -4.99374e-20 -2.77556e-17 1.11022e-16 0 0 0 0 0 0 0 0 0 0 0 0 0 0 0 0 2 0.00113333 
2056 2 0.0174439 0.0169652 -0.0583235 0 0 0 -2.10842e-06 5.08226e-13 -1.78623e-12 -6.79436e-19 -2.77556e-17 1.11022e-16 0 0 0 0 0 0 0 0 0 0 0 0 0 0 0 0 58 0.00113333 
1953 2 0.0106164 0.0203741 -0.0573536 0 0 0 -9.0083e-07 1.76114e-12 -6.18977e-12 -7.94032e-18 0 0 0 0 0 0 0 0 0 0 0 0 0 0 0 0 0 0 6 0.00113333 
5739 1 0.0128927 0.020837 -0.0572219 0 0 0 -4.7921e-07 -5.7172e-13 2.00938e-12 7.35193e-20 0 0 0 0 0 0 0 0 0 0 0 0 0 0 0 0 0 0 46 0.001 
5614 1 0.0173487 0.0195874 -0.0575774 0 0 0 1.47664e-06 7.79326e-14 -2.73899e-13 4.55526e-20 0 0 0 0 0 0 0 0 0 0 0 0 0 0 0 0 0 0 28 0.001 
3364 4 0.00248866 0.0139716 -0.0549668 0 0 0 0.0328688 -0.25475 0.28358 0 -5.63783e-05 0 0 0 0 0 0 0 0 0 0 0 0 0 0 0 0 0 189 0.0014 
1200 3 0.00385488 0.022571 -0.0566449 0 0 0 -5.74442e-17 2.37324e-15 -3.73431e-15 -1.28597e-18 0 0 0 0 0 0 0 0 0 0 0 0 0 0 0 0 0 0 0 0.00126667 
1628 1 0.00430474 0.0248844 -0.0554623 0 0 0 7.75005e-07 -1.4152e-12 2.8421e-12 -1.09331e-19 0 0 0 0 0 0 0 0 0 0 0 0 0 0 0 0 0 0 0 0.001 
2688 2 0.00742944 0.0230528 -0.0563744 0 0 0 -2.87526e-07 -8.12699e-13 1.63212e-12 6.70079e-20 0 0 0 0 0 0 0 0 0 0 0 0 0 0 0 0 0 0 46 0.00113333 
2312 1 0.00638308 0.0262377 -0.0547885 0 0 0 -3.31012e-07 1.20117e-12 -2.41227e-12 -9.63828e-20 0 0 0 0 0 0 0 0 0 0 0 0 0 0 0 0 0 0 12 0.001 
1552 1 0.00480228 0.0278457 -0.0539878 0 0 0 2.34947e-07 2.46935e-12 -4.95911e-12 1.48104e-23 0 0 0 0 0 0 0 0 0 0 0 0 0 0 0 0 0 0 4 0.001 
673 2 0.014893 0.0281713 -0.0538273 0 0 0 3.49296e-07 3.9067e-08 2.11567e-08 2.49523e-14 -6.09512e-14 1.24123e-13 0 0 0 0 0 0 0 0 0 0 0 0 0 0 0 0 32 0.00113333 
3025 3 0.0120629 0.0100167 -0.0539708 0 0 0 0.25536 -12.164 -5.88401 0 -4.17556e-05 0 0 0 0 0 0 0 0 0 0 0 0 0 0 0 0 0 163 0.00126667 
2857 1 0.0035722 0.0303886 -0.0527216 0 0 0 2.19892e-07 4.89455e-13 -9.82958e-13 -5.57389e-21 0 0 0 0 0 0 0 0 0 0 0 0 0 0 0 0 0 0 65 0.001 
4094 1 0.00567323 0.0309297 -0.0524522 0 0 0 -1.09894e-06 -1.35598e-12 2.72318e-12 -5.14519e-18 0 0 0 0 0 0 0 0 0 0 0 0 0 0 0 0 0 0 46 0.001 
146 1 0.0080015 0.0298204 -0.0530045 0 0 0 6.59843e-06 -9.91372e-13 1.99094e-12 -7.2494e-22 0 0 0 0 0 0 0 0 0 0 0 0 0 0 0 0 0 0 19 0.001 
3330 2 0.0137375 0.0298121 -0.0530069 0 0 0 -3.49296e-07 -3.90669e-08 -2.11567e-08 -2.57329e-14 -4.31322e-14 8.4488e-14 0 0 0 0 0 0 0 0 0 0 0 0 0 0 0 0 33 0.00113333 
4382 2 0.0152335 0.0316128 -0.052112 0 0 0 1.10921e-06 -2.44701e-12 4.91424e-12 -7.08012e-19 0 0 0 0 0 0 0 0 0 0 0 0 0 0 0 0 0 0 13 0.00113333 
4716 3 0.0176509 0.0298356 -0.0529969 0 0 0 -2.03706e-06 1.56951e-13 -3.152e-13 -2.84953e-17 0 0 0 0 0 0 0 0 0 0 0 0 0 0 0 0 0 0 42 0.00126667 
200 2 0.00348167 0.0328057 -0.0513397 0 0 0 -1.10997e-07 -3.50591e-12 4.64257e-12 -1.22625e-19 5.55112e-17 -5.55112e-17 0 0 0 0 0 0 0 0 0 0 0 0 0 0 0 0 1 0.00113333 
7015 6 0.00844651 0.0330916 -0.0511415 0 0 0 -4.46635e-30 6.76476e-15 -7.30186e-15 0 0 0 0 0 0 0 0 0 0 0 0 0 0 0 0 0 0 0 0 0.00166667 
4375 2 0.012748 0.0338227 -0.0505717 0 0 0 -3.18536e-06 4.49648e-12 -5.9543e-12 -3.4305e-18 0 0 0 0 0 0 0 0 0 0 0 0 0 0 0 0 0 0 73 0.00113333 
728 1 0.0171214 0.0343123 -0.0502019 0 0 0 2.19047e-06 1.11538e-12 -1.477e-12 1.72833e-19 0 0 0 0 0 0 0 0 0 0 0 0 0 0 0 0 0 0 104 0.001 
5594 2 0.0153207 0.0735204 0.0077784 0 0 0 0.519226 -0.256332 -0.784598 0 -2.99089e-05 0 0 0 0 0 0 0 0 0 0 0 0 0 0 0 0 0 40 0.00113333 
6494 3 0.00726882 0.0120617 -0.0499654 0 0 0 0.212371 -4.66876 -2.92047 0 -4.17556e-05 0 0 0 0 0 0 0 0 0 0 0 0 0 0 0 0 0 58 0.00126667 
2667 1 0.0150032 0.0273783 -0.0478833 0 0 0 0.634522 -2.19859 -0.330519 0 -2.0546e-05 0 0 0 0 0 0 0 0 0 0 0 0 0 0 0 0 0 98 0.001 
899 9 0.00716926 0.0286922 -0.0473558 0 0 0 -1.11532 -2.30075 -0.690958 0 -0.000181359 0 0 0 0 0 0 0 0 0 0 0 0 0 0 0 0 0 502 0.00206667 
1578 3 0.0127783 0.0317108 -0.0486691 0 0 0 1.91102 1.06849 -3.56864 0 -4.17556e-05 0 0 0 0 0 0 0 0 0 0 0 0 0 0 0 0 0 122 0.00126667 
2043 1 0.0064401 0.0356724 -0.0491748 0 0 0 -8.54933e-07 -1.33394e-12 1.76643e-12 2.01701e-22 0 0 0 0 0 0 0 0 0 0 0 0 0 0 0 0 0 0 68 0.001 
1352 2 0.0169676 0.0379659 -0.0474428 0 0 0 -8.16658e-07 -3.23785e-12 4.28761e-12 1.81823e-19 0 0 0 0 0 0 0 0 0 0 0 0 0 0 0 0 0 0 267 0.00113333 
2353 2 0.00233061 0.0120629 -0.0531362 0 0 0 -2.09971 -4.31747 -16.9148 0 -2.99089e-05 0 0 0 0 0 0 0 0 0 0 0 0 0 0 0 0 0 161 0.00113333 
2179 3 0.013722 0.0277147 -0.0436894 0 0 0 -0.563073 -0.257417 0.2189 0 -4.17556e-05 0 0 0 0 0 0 0 0 0 0 0 0 0 0 0 0 0 196 0.00126667 
6632 4 0.00310286 0.0286399 -0.0466162 0 0 0 -0.367548 -2.4421 -0.863987 0 -5.63783e-05 0 0 0 0 0 0 0 0 0 0 0 0 0 0 0 0 0 65 0.0014 
1283 1 0.00387724 0.0396928 -0.0461388 0 0 0 2.92224e-07 1.01071e-12 -1.3384e-12 -1.29252e-18 0 0 0 0 0 0 0 0 0 0 0 0 0 0 0 0 0 0 6 0.001 
1183 4 0.00180855 0.0413126 -0.0449733 0 0 0 -3.25329e-10 -1.44884e-14 1.26183e-14 8.18172e-11 0 0 0 0 0 0 0 0 0 0 0 0 0 0 0 0 0 0 7 0.0014 
785 2 0.00743335 0.0398111 -0.0460494 0 0 0 -6.00362e-07 1.91963e-12 -2.542e-12 -1.7862e-19 0 0 0 0 0 0 0 0 0 0 0 0 0 0 0 0 0 0 3 0.00113333 
7430 2 0.0102366 0.0421225 -0.0439529 0 0 0 -3.07951e-06 4.73955e-12 -4.32068e-12 1.20623e-16 5.55112e-17 -5.55112e-17 0 0 0 0 0 0 0 0 0 0 0 0 0 0 0 0 0 0.00113333 
618 3 0.0148931 0.0392856 -0.0464463 0 0 0 -2.208e-06 3.34469e-12 -4.4291e-12 -5.31957e-19 0 0 0 0 0 0 0 0 0 0 0 0 0 0 0 0 0 0 278 0.00126667 
6541 1 0.0117978 0.039112 -0.0465774 0 0 0 -0.00056888 -0.00104673 -0.000790345 -0.000218043 -0.000424129 -0.000320296 0 0 0 0 0 0 0 0 0 0 0 0 0 0 0 0 4 0.001 
5674 2 0.0178584 0.040333 -0.0456553 0 0 0 -3.32904e-06 8.64081e-13 -1.14422e-12 -6.36481e-17 5.55112e-17 0 0 0 0 0 0 0 0 0 0 0 0 0 0 0 0 0 88 0.00113333 
2143 4 0.00945305 0.0211239 -0.0454469 0 0 0 1.10502 2.85833 -7.9853 0 -5.63783e-05 0 0 0 0 0 0 0 0 0 0 0 0 0 0 0 0 0 197 0.0014 
7928 7 0.00908004 0.0305227 -0.0410957 0 0 0 0.369211 -2.01635 0.608985 0 -0.000119824 0 0 0 0 0 0 0 0 0 0 0 0 0 0 0 0 0 0 0.0018 
202 1 0.00576125 0.0433161 -0.0426436 0 0 0 -7.85344e-07 -2.15113e-13 1.96103e-13 1.04266e-17 0 0 0 0 0 0 0 0 0 0 0 0 0 0 0 0 0 0 39 0.001 
2014 1 0.00539545 0.0448219 -0.0409918 0 0 0 -3.00873e-06 -1.8914e-13 1.72425e-13 2.18395e-19 0 0 0 0 0 0 0 0 0 0 0 0 0 0 0 0 0 0 1 0.001 
5618 1 0.0117541 0.00662298 -0.03877 0 0 0 0.119461 -4.11574 -1.17293 0 -2.0546e-05 0 0 0 0 0 0 0 0 0 0 0 0 0 0 0 0 0 53 0.001 
6259 2 0.0173445 0.0104321 -0.0377866 0 0 0 0.202227 -7.51553 -1.44022 0 -2.99089e-05 0 0 0 0 0 0 0 0 0 0 0 0 0 0 0 0 0 46 0.00113333 
2932 6 0.00778777 0.013179 -0.0449009 0 0 0 -0.170496 -7.82152 -10.9812 0 -9.51205e-05 0 0 0 0 0 0 0 0 0 0 0 0 0 0 0 0 0 242 0.00166667 
2365 9 0.00361947 0.0302224 -0.0391667 0 0 0 0.857806 -1.89623 -1.72273 0 -0.000181359 0 0 0 0 0 0 0 0 0 0 0 0 0 0 0 0 0 299 0.00206667 
994 1 0.00264971 0.0349407 -0.0391928 0 0 0 0.65723 -1.0728 0.0588197 0 -2.0546e-05 0 0 0 0 0 0 0 0 0 0 0 0 0 0 0 0 0 81 0.001 
1671 3 0.0171916 0.0485569 -0.0367959 0 0 0 -1.39669e-12 -2.63987e-13 9.9309e-14 -3.16414e-14 1.27565e-13 -1.06359e-13 0 0 2 0 0 0 0 0 0 0 0 0 0 0 0 0 338 0.00126667 
7319 2 0.00999717 0.0087349 -0.0394111 0 0 0 4.44182 -8.11793 -6.03709 0 -2.99089e-05 0 0 0 0 0 0 0 0 0 0 0 0 0 0 0 0 0 31 0.00113333 
3621 1 0.00261413 0.0327182 -0.0335515 0 0 0 0.7569 -3.9036 -0.151992 0 -2.0546e-05 0 0 0 0 0 0 0 0 0 0 0 0 0 0 0 0 0 107 0.001 
2937 6 0.00501412 0.040202 -0.0343437 0 0 0 0.107803 -3.01971 -1.35052 0 -9.51205e-05 0 0 0 0 0 0 0 0 0 0 0 0 0 0 0 0 0 293 0.00166667 
3738 1 0.0176594 0.0459673 -0.0340619 0 0 0 0.0303329 -1.57298 -1.29419 0 -2.0546e-05 0 0 0 0 0 0 0 0 0 0 0 0 0 0 0 0 0 80 0.001 
1936 1 0.00805194 0.0507504 -0.0355 0 0 0 3.48497e-302 1.23547e-19 5.0713e-12 1.86222e-307 0 -4.44089e-16 0 0 0 0 0 0 0 0 0 0 0 0 0 0 0 0 72 0.001 
2980 2 0.0108981 0.0519155 -0.0334716 0 0 0 -0.223038 -0.402116 0.556022 0 -2.99089e-05 0 0 0 0 0 0 0 0 0 0 0 0 0 0 0 0 0 145 0.00113333 
337 2 0.0116016 0.0507902 -0.0354983 0 0 0 2.71198e-05 -3.27301e-05 1.09638e-07 -2.94674e-06 3.68456e-06 -8.15155e-09 0 1 0 0 0 0 0 0 0 0 0 0 0 0 0 0 373 0.00113333 
141 1 0.0128938 0.0521375 -0.0354995 0 0 0 -8.98397e-05 2.79093e-05 -6.63712e-09 7.00639e-06 -2.16535e-06 3.76217e-10 1 1 0 0 0 0 0 0 0 0 0 0 0 0 0 0 742 0.001 
5085 1 0.0181355 0.0496186 -0.035807 0 0 0 -1.18665e-12 -7.17406e-13 -2.69419e-12 -1.78746e-14 2.26902e-14 -9.15934e-14 2 0 1 0 0 0 0 0 0 0 0 0 0 0 0 0 110 0.001 
585 6 0.0127068 0.0545193 -0.0355013 0 0 0 3.82395e-05 6.36226e-06 -7.33718e-08 -1.11124e-05 -2.08733e-06 1.45668e-08 1 0 0 0 0 0 0 0 0 0 0 0 0 0 0 0 377 0.00166667 
1639 1 0.0163327 0.054839 -0.0355018 0 0 0 -6.98855e-07 -3.6274e-07 -5.0972e-09 3.86252e-09 1.84991e-09 -2.21969e-11 1 0 0 0 0 0 0 0 0 0 0 0 0 0 0 0 67 0.001 
2072 2 0.0175971 0.0534698 -0.0354826 0 0 0 -3.8577e-07 1.70755e-06 -2.84618e-10 1.45061e-09 -1.02491e-08 2.05196e-11 1 0 0 0 0 0 0 0 0 0 0 0 0 0 0 0 177 0.00113333 
470 3 0.00856333 0.0575389 -0.0355008 0 0 0 9.5599e-06 -4.32343e-05 -8.96251e-08 3.5305e-07 -1.53906e-06 -4.15847e-09 0 0 0 0 0 0 0 0 0 0 0 0 0 0 0 0 2 0.00126667 
1306 3 0.0109077 0.0582027 -0.0354993 0 0 0 -6.60684e-05 0.00010188 8.36649e-08 -2.38244e-06 3.64506e-06 4.00684e-09 0 0 1 0 0 0 0 0 0 0 0 0 0 0 0 0 335 0.00126667 
1254 1 0.0141617 0.0573466 -0.0355 0 0 0 9.65239e-303 -1.6889e-19 -1.01876e-12 1.83636e-307 0 4.44089e-16 0 0 0 0 0 0 0 0 0 0 0 0 0 0 0 0 3 0.001 
464 4 0.0176299 0.0583136 -0.0354944 0 0 0 6.54932e-07 5.58768e-07 3.63578e-09 -2.57682e-09 -3.7289e-09 4.24372e-11 0 0 0 1 0 0 0 0 0 0 0 0 0 0 0 0 70 0.0014 
1666 1 0.00960098 0.0613309 -0.0355044 0 0 0 -4.42047e-15 1.34977e-15 -2.86272e-12 0 0 0 1 0 0 0 0 0 0 0 0 0 0 0 0 0 0 0 129 0.001 
1284 7 0.0130606 0.0602989 -0.0355018 0 0 0 0.00013376 -9.48839e-05 2.34512e-07 1.47308e-05 -1.05755e-05 2.96824e-08 0 0 1 0 0 0 1 0 0 0 0 0 0 0 0 0 401 0.0018 
3934 1 0.00278168 0.0642605 -0.0332702 0 0 0 0.105602 -0.443026 0.188261 0 -2.0546e-05 0 0 0 0 0 0 0 0 0 0 0 0 0 0 0 0 0 93 0.001 
3958 1 0.00814729 0.0648857 -0.0355049 0 0 0 -4.39777e-06 7.48143e-06 -1.48174e-07 -2.56319e-06 3.95731e-06 4.52257e-08 0 0 0 0 0 0 0 0 0 0 0 0 0 0 0 0 9 0.001 
6426 2 0.0109906 0.0624562 -0.0354964 0 0 0 3.07459e-15 -1.73939e-15 -2.86691e-12 0 0 0 1 0 0 0 0 0 0 0 0 0 0 0 0 0 0 0 79 0.00113333 
7964 2 0.00883546 0.0651103 -0.0320853 0 0 0 -1.00933 -0.105002 2.71925 0 -2.99089e-05 0 0 0 0 0 0 0 0 0 0 0 0 0 0 0 0 0 0 0.00113333 
6634 3 0.0146576 0.0624855 -0.0355004 0 0 0 -0.000149208 0.000249364 5.69036e-07 -5.36369e-06 9.0391e-06 2.71129e-08 0 0 2 0 0 0 1 0 0 0 0 0 0 0 0 0 201 0.00126667 
433 1 0.0165825 0.0636126 -0.035512 0 0 0 -9.81142e-05 -0.00010302 1.98141e-07 -1.70953e-06 -1.77757e-06 3.60689e-09 0 0 1 0 0 0 0 0 0 0 0 0 0 0 0 0 68 0.001 
554 1 0.0165941 0.0621254 -0.0354834 0 0 0 9.00414e-05 -0.000119173 -1.51701e-06 1.58517e-06 -2.04187e-06 -3.21245e-08 0 0 1 0 0 0 0 0 0 0 0 0 0 0 0 0 68 0.001 
502 1 0.00392343 0.0667395 -0.0355 0 0 0 -9.03624e-74 -1.35177e-19 -1.01873e-12 -2.75522e-74 0 -4.44089e-16 0 0 0 0 0 0 0 0 0 0 0 0 0 0 0 0 3 0.001 
5123 1 0.00953172 0.0660491 -0.0354953 0 0 0 6.94454e-06 -4.09851e-06 1.07843e-07 7.18227e-06 -9.53142e-07 -2.78055e-08 0 0 0 0 0 0 0 0 0 0 0 0 0 0 0 0 11 0.001 
6583 1 0.00852796 0.0677389 -0.0354997 0 0 0 -2.54629e-06 -3.38288e-06 4.03519e-08 -4.61912e-06 -3.00405e-06 -1.73961e-08 0 0 0 0 0 0 0 0 0 0 0 0 0 0 0 0 2 0.001 
2166 1 0.01782 0.0681205 -0.0355 0 0 0 -4.68849e-84 -6.73942e-20 6.08172e-12 -1.78705e-86 -1.69407e-21 4.44089e-16 0 0 0 0 0 0 0 0 0 0 0 0 0 0 0 0 25 0.001 
6420 1 0.00208447 0.0696275 -0.0339723 0 0 0 0.071497 -0.611866 0.00267943 0 -2.0546e-05 0 0 0 0 0 0 0 0 0 0 0 0 0 0 0 0 0 33 0.001 
3285 1 0.00611146 0.0687339 -0.0355 0 0 0 -2.7831e-84 -1.00855e-19 -4.06093e-12 4.07605e-85 0 0 0 0 0 0 0 0 0 0 0 0 0 0 0 0 0 0 17 0.001 
1473 2 0.0147702 0.0705042 -0.0355 0 0 0 -9.40789e-50 1.67915e-19 -3.96722e-15 4.07901e-51 0 0 0 0 0 0 0 0 0 0 0 0 0 0 0 0 0 0 45 0.00113333 
5769 3 0.00234625 0.0733156 -0.0334828 0 0 0 -0.0397252 -0.0396177 -0.113677 0 -4.17556e-05 0 0 0 0 0 0 0 0 0 0 0 0 0 0 0 0 0 111 0.00126667 
4204 2 0.00614233 0.0719135 -0.0355 0 0 0 4.19514e-62 1.01429e-19 -3.68656e-12 2.40332e-62 0 8.88178e-16 0 0 0 0 0 0 0 0 0 0 0 0 0 0 0 0 32 0.00113333 
3894 3 0.00466379 0.074352 -0.0335892 0 0 0 -0.277617 0.351709 0.0947108 0 -4.17556e-05 0 0 0 0 0 0 0 0 0 0 0 0 0 0 0 0 0 145 0.00126667 
3091 1 0.00930184 0.0725179 -0.0355 0 0 0 1.00224e-18 -5.18392e-19 4.06088e-12 -1.32238e-19 3.04932e-20 0 0 0 0 0 0 0 0 0 0 0 0 0 0 0 0 0 5 0.001 
1650 3 0.0123844 0.0749286 -0.0354911 0 0 0 4.60394e-09 -1.59305e-11 1.58453e-12 -1.31843e-09 5.02887e-12 -2.66454e-14 0 0 1 0 0 0 0 0 0 0 0 0 0 0 0 0 177 0.00126667 
2967 8 0.0186395 0.0722274 -0.0355 0 0 0 1.05288e-12 1.56481e-13 1.15106e-12 -1.68288e-12 3.05074e-13 7.10543e-15 0 0 0 0 0 0 0 0 0 0 0 0 0 0 0 0 9 0.00193333 
1994 5 0.0153126 0.0747907 -0.0355 0 0 0 1.33238e-51 7.14038e-20 -4.16254e-15 1.28473e-51 0 0 0 0 0 0 0 0 0 0 0 0 0 0 0 0 0 0 1 0.00153333 
4137 3 0.0185975 0.05081 -0.00175039 0 0 0 -0.703069 -4.31429 0.857216 0 -4.17556e-05 0 0 0 0 0 0 0 0 0 0 0 0 0 0 0 0 0 118 0.00126667 
6160 1 0.0162783 0.0437669 -0.0301018 0 0 0 -4.7291 -2.76964 1.35706 0 -2.0546e-05 0 0 0 0 0 0 0 0 0 0 0 0 0 0 0 0 0 54 0.001 
7244 1 0.00389156 0.0477818 -0.0327233 0 0 0 0.492431 -0.334428 0.204579 0 -2.0546e-05 0 0 0 0 0 0 0 0 0 0 0 0 0 0 0 0 0 11 0.001 
2720 2 0.0137494 0.0464896 -0.0303637 0 0 0 1.4645 -1.66779 0.776712 0 -2.99089e-05 0 0 0 0 0 0 0 0 0 0 0 0 0 0 0 0 0 151 0.00113333 
5607 1 0.00296417 0.0557139 -0.0316333 0 0 0 -0.183032 -1.33478 0.0305526 0 -2.0546e-05 0 0 0 0 0 0 0 0 0 0 0 0 0 0 0 0 0 66 0.001 
3107 2 0.00550389 0.0569446 -0.0297863 0 0 0 -0.478292 -0.598659 1.55159 0 -2.99089e-05 0 0 0 0 0 0 0 0 0 0 0 0 0 0 0 0 0 133 0.00113333 
6848 5 0.00365959 0.0592356 -0.0328241 0 0 0 -0.658436 -0.300012 0.550417 0 -7.40691e-05 0 0 0 0 0 0 0 0 0 0 0 0 0 0 0 0 0 71 0.00153333 
2130 2 0.00214967 0.0623625 -0.0324357 0 0 0 -0.0335457 -0.471972 0.237248 0 -2.99089e-05 0 0 0 0 0 0 0 0 0 0 0 0 0 0 0 0 0 149 0.00113333 
4186 4 0.00463407 0.0626395 -0.0330859 0 0 0 -0.517838 -0.311048 0.346179 0 -5.63783e-05 0 0 0 0 0 0 0 0 0 0 0 0 0 0 0 0 0 131 0.0014 
978 2 0.0126998 0.062273 -0.0304272 0 0 0 -1.17043 -1.8649 0.63034 0 -2.99089e-05 0 0 0 0 0 0 0 0 0 0 0 0 0 0 0 0 0 140 0.00113333 
3973 4 0.0157186 0.0647676 -0.0323712 0 0 0 -0.862331 -0.845244 1.67163 0.0577183 -0.0167219 0.00855096 0 0 0 1 0 0 0 0 0 0 0 0 0 0 0 0 215 0.0014 
2652 2 0.0160141 0.0607157 -0.0292197 0 0 0 -1.8015 -6.06645 2.51552 0 -2.99089e-05 0 0 0 0 0 0 0 0 0 0 0 0 0 0 0 0 0 129 0.00113333 
3624 2 0.00231127 0.0673792 -0.0330985 0 0 0 0.23121 -0.50395 0.2971 0 -2.99089e-05 0 0 0 0 0 0 0 0 0 0 0 0 0 0 0 0 0 101 0.00113333 
1383 2 0.00446643 0.065629 -0.031688 0 0 0 0.276284 -0.503395 0.0701288 0 -2.99089e-05 0 0 0 0 0 0 0 0 0 0 0 0 0 0 0 0 0 131 0.00113333 
2395 2 0.0132994 0.0647735 -0.0318032 0 0 0 -1.25615 -1.26369 -1.18249 -0.0577183 0.0166356 -0.00855096 0 0 0 1 0 0 0 0 0 0 0 0 0 0 0 0 109 0.00113333 
4462 2 0.00314889 0.0699212 -0.0321414 0 0 0 0.026726 -0.525213 0.0649516 0 -2.99089e-05 0 0 0 0 0 0 0 0 0 0 0 0 0 0 0 0 0 92 0.00113333 
7544 11 0.00839294 0.0697884 -0.0314665 0 0 0 -0.94756 -1.49996 -0.223559 0.0294498 0.0260962 0.0346063 0 0 0 0 0 0 0 0 0 0 1 0 0 0 0 0 58 0.00233333 
4509 2 0.0176662 0.070299 -0.0317435 0 0 0 -0.508602 -0.168463 0.577788 0 -2.99089e-05 0 0 0 0 0 0 0 0 0 0 0 0 0 0 0 0 0 54 0.00113333 
6846 2 0.0021969 0.0721017 -0.0302812 0 0 0 0.0863795 0.0932248 0.0649207 0 -2.99089e-05 0 0 0 0 0 0 0 0 0 0 0 0 0 0 0 0 0 3 0.00113333 
211 3 0.00428198 0.0742854 -0.030408 0 0 0 -0.0315012 -0.148987 0.00431454 -9.64962e-05 -0.000673805 -0.000222449 0 0 2 0 0 0 0 0 0 0 0 0 0 0 0 0 267 0.00126667 
3199 5 0.0050238 0.0719738 -0.0317973 0 0 0 -0.103557 -0.134807 -0.199542 0.000223396 0.000472956 0.000115279 0 0 1 0 0 0 0 0 0 0 0 0 0 0 0 0 150 0.00153333 
3356 1 0.00681501 0.0736807 -0.0329339 0 0 0 0.0955157 -0.142267 -0.583211 0 -2.0546e-05 0 0 0 0 0 0 0 0 0 0 0 0 0 0 0 0 0 118 0.001 
5924 1 0.0103599 0.0743585 -0.0327518 0 0 0 -0.790903 -0.323296 0.577937 0 -2.0546e-05 0 0 0 0 0 0 0 0 0 0 0 0 0 0 0 0 0 73 0.001 
7855 1 0.0047256 0.0314893 -0.0297332 0 0 0 1.19014 -1.38907 0.323497 0 -2.0546e-05 0 0 0 0 0 0 0 0 0 0 0 0 0 0 0 0 0 0 0.001 
7961 3 0.00986826 0.0362153 -0.0304451 0 0 0 -14.0013 -9.47663 -4.47617 0 -4.17556e-05 0 0 0 0 0 0 0 0 0 0 0 0 0 0 0 0 0 0 0.00126667 
7845 2 0.00495298 0.0455708 -0.029647 0 0 0 -0.24573 -2.31281 0.119824 0 -2.99089e-05 0 0 0 0 0 0 0 0 0 0 0 0 0 0 0 0 0 1 0.00113333 
2767 3 0.0153194 0.0508248 -0.0289127 0 0 0 -2.71152 -2.18258 -0.432247 0 -4.17556e-05 0 0 0 0 0 0 0 0 0 0 0 0 0 0 0 0 0 103 0.00126667 
7156 2 0.00257927 0.0525792 -0.0267074 0 0 0 0.169634 -3.2765 1.20438 0 -2.99089e-05 0 0 0 0 0 0 0 0 0 0 0 0 0 0 0 0 0 13 0.00113333 
4830 2 0.00229499 0.0548325 -0.0295855 0 0 0 0.617822 -2.23351 -0.232145 0 -2.99089e-05 0 0 0 0 0 0 0 0 0 0 0 0 0 0 0 0 0 103 0.00113333 
677 3 0.0110455 0.0568374 -0.0285095 0 0 0 0.149398 -2.19461 2.64416 0 -4.17556e-05 0 0 0 0 0 0 0 0 0 0 0 0 0 0 0 0 0 175 0.00126667 
1918 7 0.0130086 0.0587665 -0.0299653 0 0 0 -1.34318 -1.13781 -0.0757004 0 -0.000119824 0 0 0 0 0 0 0 0 0 0 0 0 0 0 0 0 0 299 0.0018 
1414 2 0.00220467 0.0657996 -0.0273972 0 0 0 0.16361 -0.852125 -0.195673 0 -2.99089e-05 0 0 0 0 0 0 0 0 0 0 0 0 0 0 0 0 0 156 0.00113333 
3848 2 0.00214415 0.0688238 -0.0284337 0 0 0 -0.0244803 -0.534084 0.327147 0 -2.99089e-05 0 0 0 0 0 0 0 0 0 0 0 0 0 0 0 0 0 112 0.00113333 
3979 3 0.00392941 0.0703602 -0.0277366 0 0 0 0.400808 -0.531544 0.553052 0.0351878 -0.0137026 -0.00111612 0 0 1 0 0 0 0 0 0 0 0 0 0 0 0 0 98 0.00126667 
1766 2 0.00572975 0.069217 -0.0291781 0 0 0 -1.14919 -1.48529 0.849746 0 -2.99089e-05 0 0 0 0 0 0 0 0 0 0 0 0 0 0 0 0 0 173 0.00113333 