ITEM: TIMESTEP
20000000
ITEM: NUMBER OF ATOMS
2408
ITEM: BOX BOUNDS ff ff ff
-0.01 0.45
-0.15 0.15
-0.08 0.1
ITEM: ATOMS id type x y z ix iy iz vx vy vz fx fy fz c_cc_1 c_cc_2 c_cc_3 c_cc_4 c_cc_5 c_cc_6 c_cc_7 c_cc_8 c_cc_9 c_cc_10 c_cc_11 c_cc_12 c_cc_13 c_cc_14 c_cc_15 c_cc_16 f_fppacc radius 
1006 1 0.00749651 -0.0410986 -0.039302 0 0 0 0.986793 -3.1325 1.38666 0 -0.000164368 0 0 0 0 0 0 0 0 0 0 0 0 0 0 0 0 0 189 0.002 
317 11 0.0148068 -0.047057 -0.0323493 0 0 0 0.388675 -5.97609 8.16485 0 -0.000164368 0 0 0 0 0 0 0 0 0 0 0 0 0 0 0 0 0 224 0.002 
857 7 0.0114896 -0.0508048 -0.0189199 0 0 0 -1.18349 -10.1737 10.756 0 -0.000164368 0 0 0 0 0 0 0 0 0 0 0 0 0 0 0 0 0 167 0.002 
584 8 0.0158917 -0.0551565 -0.016428 0 0 0 1.36257 -1.57266 6.84257 0 -0.000164368 0 0 0 0 0 0 0 0 0 0 0 0 0 0 0 0 0 271 0.002 
1526 4 0.00560383 -0.0384349 -0.0361307 0 0 0 0.344957 -3.89934 3.38598 0 -0.000164368 0 0 0 0 0 0 0 0 0 0 0 0 0 0 0 0 0 111 0.002 
38 9 0.00984587 -0.0449674 0.0305037 0 0 0 -2.48965 1.45794 -0.00829996 0 -0.000164368 0 0 0 0 0 0 0 0 0 0 0 0 0 0 0 0 0 127 0.002 
1982 1 0.0122583 -0.0124718 -0.0560769 0 0 0 -2.76796 -15.4627 4.1096 -0.196625 -0.0521215 -0.0819885 1 0 0 0 0 0 0 0 0 0 0 0 0 0 0 0 68 0.002 
672 6 0.0157473 -0.0133267 -0.0546983 0 0 0 1.08745 -9.19346 2.69471 0.196625 0.0517928 0.0819885 1 0 0 0 0 0 0 0 0 0 0 0 0 0 0 0 65 0.002 
1960 2 0.00415912 -0.01945 -0.0513118 0 0 0 0.530339 -3.03168 2.59105 0 -0.000164368 0 0 0 0 0 0 0 0 0 0 0 0 0 0 0 0 0 94 0.002 
1291 4 0.0144187 -0.0101777 -0.0525938 0 0 0 0.408958 -8.5617 4.51792 0 -0.000164368 0 0 0 0 0 0 0 0 0 0 0 0 0 0 0 0 0 174 0.002 
5 3 0.00595668 -0.0298054 -0.0493104 0 0 0 1.00771 -4.66017 2.62777 0 -0.000164368 0 0 0 0 0 0 0 0 0 0 0 0 0 0 0 0 0 84 0.002 
2477 4 0.0174917 -0.0246581 -0.0481801 0 0 0 0.0472651 -11.1077 4.49948 0 -0.000164368 0 0 0 0 0 0 0 0 0 0 0 0 0 0 0 0 0 2 0.002 
1555 4 0.00794355 -0.033111 -0.0458428 0 0 0 1.62552 -3.01582 4.56807 0 -0.000164368 0 0 0 0 0 0 0 0 0 0 0 0 0 0 0 0 0 111 0.002 
2504 4 0.00287074 -0.0216592 -0.0464627 0 0 0 0.252858 -38.4685 -1.27778 0.677835 0.327845 0.0852924 0 0 0 0 0 0 0 0 0 0 0 0 0 0 0 0 0 0.002 
2315 7 0.00313613 -0.0346271 -0.0410449 0 0 0 0.8931 -3.87614 4.12346 0 -0.000164368 0 0 0 0 0 0 0 0 0 0 0 0 0 0 0 0 0 14 0.002 
2204 4 0.0186636 -0.0343901 -0.0415128 0 0 0 5.37705 -9.05602 3.95895 0 -0.000164368 0 0 0 0 0 0 0 0 0 0 0 0 0 0 0 0 0 25 0.002 
2497 2 0.00432796 -0.00993664 -0.0567202 0 0 0 -6.47932 -22.8153 0.526454 0 -0.000164368 0 0 0 0 0 0 0 0 0 0 0 0 0 0 0 0 0 0 0.002 
2240 4 0.00394028 -0.00223049 0.0572933 0 0 0 3.64317 31.7296 3.38964 0 -0.000164368 0 0 0 0 0 0 0 0 0 0 0 0 0 0 0 0 0 22 0.002 
1017 2 0.0112098 -0.00148297 0.0577994 0 0 0 -20.2284 45.2871 1.79312 0 -0.000164368 0 0 0 0 0 0 0 0 0 0 0 0 0 0 0 0 0 112 0.002 
1271 4 0.00667317 0.0118033 -0.0597119 0 0 0 -1.1483e-07 7.10496e-09 4.7848e-09 1.17055e-08 -7.00993e-10 -4.98691e-10 0 0 0 0 0 0 0 0 0 0 0 0 0 0 0 0 131 0.002 
2263 2 0.00313932 0.0309804 -0.0138188 0 0 0 0.534609 -2.49829 -19.464 0 -0.000164368 0 0 0 0 0 0 0 0 0 0 0 0 0 0 0 0 0 20 0.002 
2498 2 0.00642649 0.0196277 -0.0500449 0 0 0 3.72506 -2.7758 -3.44564 0 -0.000164368 0 0 0 0 0 0 0 0 0 0 0 0 0 0 0 0 0 0 0.002 
1911 2 0.00318753 0.0125386 -0.042416 0 0 0 -0.666326 -3.14359 -1.17181 0 -0.000164368 0 0 0 0 0 0 0 0 0 0 0 0 0 0 0 0 0 121 0.002 
283 10 0.00501987 0.000215177 -0.0401155 0 0 0 -0.371628 -3.66938 -2.36489 0 -0.000164368 0 0 0 0 0 0 0 0 0 0 0 0 0 0 0 0 0 227 0.002 
610 7 0.00373948 0.0259784 -0.0389453 0 0 0 0.171882 -1.47592 0.327498 0 -0.000164368 0 0 0 0 0 0 0 0 0 0 0 0 0 0 0 0 0 41 0.002 
1122 1 0.0120089 0.00537842 -0.0377093 0 0 0 0.881825 -4.81783 -0.739079 0 -0.000164368 0 0 0 0 0 0 0 0 0 0 0 0 0 0 0 0 0 185 0.002 
134 2 0.00444362 0.00865335 -0.0416968 0 0 0 -0.0206321 -6.87897 -9.03655 0 -0.000164368 0 0 0 0 0 0 0 0 0 0 0 0 0 0 0 0 0 12 0.002 
2104 6 0.003766 0.0338389 -0.0374321 0 0 0 0.177141 -2.48619 -1.83616 0 -0.000164368 0 0 0 0 0 0 0 0 0 0 0 0 0 0 0 0 0 54 0.002 
293 1 0.0141037 0.0344886 -0.0391235 0 0 0 0.63388 -2.31496 -1.75772 0 -0.000164368 0 0 0 0 0 0 0 0 0 0 0 0 0 0 0 0 0 185 0.002 
665 2 0.00778353 0.0331858 -0.0337302 0 0 0 0.257906 -2.7383 -1.10629 0 -0.000164368 0 0 0 0 0 0 0 0 0 0 0 0 0 0 0 0 0 51 0.002 
1992 2 0.0116768 0.0214086 -0.0293467 0 0 0 0.195194 -1.59427 0.114861 0 -0.000164368 0 0 0 0 0 0 0 0 0 0 0 0 0 0 0 0 0 101 0.002 
2472 5 0.0055423 0.0216502 -0.0283836 0 0 0 0.327555 -2.63474 0.483728 0 -0.000164368 0 0 0 0 0 0 0 0 0 0 0 0 0 0 0 0 0 3 0.002 
1895 1 0.00549159 0.0238493 -0.0229032 0 0 0 0.257055 -2.44802 0.703799 0 -0.000164368 0 0 0 0 0 0 0 0 0 0 0 0 0 0 0 0 0 28 0.002 
2140 8 0.00760746 0.0348633 -0.0154932 0 0 0 0.515719 -1.64849 1.15265 0 -0.000164368 0 0 0 0 0 0 0 0 0 0 0 0 0 0 0 0 0 69 0.002 
477 2 0.00586898 0.0282657 0.0504622 0 0 0 -11.4062 42.0318 -23.958 -0.0454248 0.30117 0.166185 0 0 0 0 0 0 0 0 0 0 0 0 0 0 0 0 156 0.002 
2458 1 0.0177866 0.0193447 0.054309 0 0 0 0.151126 12.4053 -4.25085 0 -0.000164368 0 0 0 0 0 0 0 0 0 0 0 0 0 0 0 0 0 0 0.002 
1858 3 0.0053136 0.0102529 0.0566963 0 0 0 4.67634 29.7978 -4.7987 0 -0.000164368 0 0 0 0 0 0 0 0 0 0 0 0 0 0 0 0 0 124 0.002 
2004 2 0.00370901 0.0429937 -0.0380136 0 0 0 0.578185 -0.782808 -0.562887 0 -0.000164368 0 0 0 0 0 0 0 0 0 0 0 0 0 0 0 0 0 81 0.002 
41 1 0.015059 0.0528771 -0.0355024 0 0 0 -5.85262e-16 -1.98782e-17 -4.77239e-12 0 2.77556e-17 0 1 0 0 0 0 0 0 0 0 0 0 0 0 0 0 0 187 0.002 
480 3 0.0160522 0.0564905 -0.0354976 0 0 0 5.61142e-16 -3.40615e-17 -4.7687e-12 0 0 0 1 0 0 0 0 0 0 0 0 0 0 0 0 0 0 0 232 0.002 
1707 1 0.0127296 0.0626016 -0.0355 0 0 0 -0.000468833 1.1349e-07 0.000589766 -0.000521126 -0.000356303 0.000158545 0 0 0 0 0 0 0 0 0 0 0 0 0 0 0 0 3 0.002 
286 14 0.0158492 0.0688617 -0.0354996 0 0 0 0.0145185 0.0142029 0.00530064 0.00538586 0.00992526 -0.0107287 0 0 0 0 0 0 0 0 0 0 0 0 0 1 0 0 133 0.002 
708 1 0.00391836 0.0483758 -0.0329974 0 0 0 0.234279 -0.907135 0.125608 0 -0.000164368 0 0 0 0 0 0 0 0 0 0 0 0 0 0 0 0 0 189 0.002 
2124 3 0.00929734 0.0462873 -0.0328753 0 0 0 -0.076916 -1.25066 -0.0236386 0 -0.000164368 0 0 0 0 0 0 0 0 0 0 0 0 0 0 0 0 0 3 0.002 
2484 1 0.00810809 0.0546167 -0.0322203 0 0 0 1.64496 -2.65323 1.07048 0.272572 0.013677 0.25481 0 0 0 0 0 0 0 0 0 0 0 0 0 0 0 0 1 0.002 
2030 2 0.00330544 0.0595395 -0.0320718 0 0 0 0.349886 -0.131508 -0.794913 0 -0.000164368 0 0 0 0 0 0 0 0 0 0 0 0 0 0 0 0 0 70 0.002 
2495 3 0.0106286 0.0597313 -0.0330092 0 0 0 -0.68187 -2.18953 0.362645 0.0218528 -0.000753687 -0.0823174 0 0 1 0 0 0 0 0 0 0 0 0 0 0 0 0 1 0.002 
929 3 0.0159616 0.0579291 -0.0316424 0 0 0 -0.294359 -1.73266 0.587414 0 -0.000164368 0 0 0 0 0 0 0 0 0 0 0 0 0 0 0 0 0 195 0.002 
2198 9 0.00741675 0.0650062 -0.0328557 0 0 0 -0.435541 -0.301374 -0.424134 -0.0459008 0.00296086 -0.111487 0 0 0 0 0 0 0 0 1 0 0 0 0 0 0 0 51 0.002 
1755 6 0.00371425 0.0682075 -0.0320657 0 0 0 -0.280548 -0.800535 -0.813439 0 -0.000164368 0 0 0 0 0 0 0 0 0 0 0 0 0 0 0 0 0 107 0.002 
445 5 0.00901068 0.0711107 -0.0330529 0 0 0 0.174962 2.21671 1.68559 0.00536248 0.00032751 -0.0690424 0 0 0 0 0 0 0 0 0 0 0 0 0 0 0 0 19 0.002 
2294 4 0.00312037 0.0730613 -0.0322334 0 0 0 -0.157697 -0.199056 0.141242 0 -0.000164368 0 0 0 0 0 0 0 0 0 0 0 0 0 0 0 0 0 52 0.002 
192 7 0.00667831 0.0430958 -0.0297853 0 0 0 -0.792314 -0.679312 1.6195 0 -0.000164368 0 0 0 0 0 0 0 0 0 0 0 0 0 0 0 0 0 184 0.002 
1475 2 0.0116485 0.0473472 -0.0297252 0 0 0 -0.115288 -2.55872 0.224973 0 -0.000164368 0 0 0 0 0 0 0 0 0 0 0 0 0 0 0 0 0 76 0.002 
902 3 0.0148764 0.0492836 -0.0312241 0 0 0 0.813264 -2.79565 -0.82539 0 -0.000164368 0 0 0 0 0 0 0 0 0 0 0 0 0 0 0 0 0 189 0.002 
1609 14 0.00301909 0.0513402 -0.0303331 0 0 0 0.322379 -0.258931 0.149967 0 -0.000164368 0 0 0 0 0 0 0 0 0 0 0 0 0 0 0 0 0 158 0.002 
2321 1 0.00451964 0.0555628 -0.0331763 0 0 0 1.72664 1.147 1.42916 -0.247508 -0.262294 0.604739 0 0 0 0 0 0 0 0 0 0 0 0 0 0 0 0 32 0.002 
1077 1 0.0108495 0.0575894 -0.0296622 0 0 0 0.273806 0.0448281 0.778843 -0.015721 -0.0134466 0.0599881 0 0 1 0 0 0 0 0 0 0 0 0 0 0 0 0 33 0.002 
1968 3 0.00696442 0.0588049 -0.0305777 0 0 0 -0.345861 -0.897655 -0.311423 0 -0.000164368 0 0 0 0 0 0 0 0 0 0 0 0 0 0 0 0 0 1 0.002 
1324 2 0.00934696 0.0676677 -0.0305683 0 0 0 -3.06948 0.646522 -0.639876 0 -0.000164368 0 0 0 0 0 0 0 0 0 0 0 0 0 0 0 0 0 168 0.002 
2486 1 0.0170804 0.0690679 -0.031707 0 0 0 2.76307 2.0517 -0.226395 -0.0257432 -0.0244483 -0.0171175 0 0 0 0 0 0 0 0 0 0 0 0 0 1 0 0 1 0.002 
565 3 0.00694311 0.0739441 -0.0309796 0 0 0 -1.18217 1.98672 -0.288921 0 -0.000164368 0 0 0 0 0 0 0 0 0 0 0 0 0 0 0 0 0 157 0.002 
1020 3 0.008224 0.0632487 -0.0294357 0 0 0 -0.59211 0.0767628 -0.233905 0.0459008 -0.0032896 0.111487 0 0 0 0 0 0 0 0 1 0 0 0 0 0 0 0 178 0.002 
527 8 0.00586536 0.0668701 -0.0285774 0 0 0 -1.32243 0.707874 -0.308717 0 -0.000164368 0 0 0 0 0 0 0 0 0 0 0 0 0 0 0 0 0 113 0.002 
2426 11 0.0035351 0.0720766 -0.0278058 0 0 0 0.266081 0.0624173 -0.289743 0 -0.000164368 0 0 0 0 0 0 0 0 0 0 0 0 0 0 0 0 0 1 0.002 
2271 6 0.00307528 0.0471243 -0.026427 0 0 0 0.0310849 -1.63105 -0.209207 0 -0.000164368 0 0 0 0 0 0 0 0 0 0 0 0 0 0 0 0 0 54 0.002 
1677 4 0.00980686 0.0605325 -0.0226864 0 0 0 0.248641 -0.414299 -1.55035 0 -0.000164368 0 0 0 0 0 0 0 0 0 0 0 0 0 0 0 0 0 105 0.002 
1080 4 0.012374 0.0689287 -0.0223788 0 0 0 -0.685237 5.55286 -1.21812 0 -0.000164368 0 0 0 0 0 0 0 0 0 0 0 0 0 0 0 0 0 204 0.002 
1797 1 0.0153382 0.0704201 -0.017792 0 0 0 0.0218228 -1.01379 0.84414 0 -0.000164368 0 0 0 0 0 0 0 0 0 0 0 0 0 0 0 0 0 117 0.002 
1603 6 0.00653463 0.0433264 -0.0131851 0 0 0 0.0687792 -2.1003 0.775019 0 -0.000164368 0 0 0 0 0 0 0 0 0 0 0 0 0 0 0 0 0 110 0.002 
2298 7 0.00912875 0.0507325 -0.0141815 0 0 0 0.418442 -1.66522 0.705726 0 -0.000164368 0 0 0 0 0 0 0 0 0 0 0 0 0 0 0 0 0 42 0.002 
2089 4 0.00296148 0.0681606 -0.0132246 0 0 0 -2.49224 -1.19269 -8.03461 0.250828 0.00690146 -0.293286 0 0 0 1 0 0 0 0 0 0 0 0 0 0 0 0 37 0.002 
1338 1 0.00690866 0.0725808 -0.0131944 0 0 0 5.2941 7.76519 -13.4128 0 -0.000164368 0 0 0 0 0 0 0 0 0 0 0 0 0 0 0 0 0 159 0.002 
1827 1 0.00370665 0.0394019 -0.000357858 0 0 0 -0.433314 0.419464 1.95178 0 -0.000164368 0 0 0 0 0 0 0 0 0 0 0 0 0 0 0 0 0 101 0.002 
572 3 0.00493903 0.0598942 0.000757492 0 0 0 0.281677 -1.20634 0.306651 0 -0.000164368 0 0 0 0 0 0 0 0 0 0 0 0 0 0 0 0 0 176 0.002 
167 2 0.00388681 0.0703427 -0.0103625 0 0 0 0.0745111 0.656993 -5.78699 0.220837 0.0961024 0.505275 0 0 0 1 0 0 0 0 0 0 0 0 0 0 0 0 148 0.002 
867 3 0.00861154 0.0691004 -0.00223543 0 0 0 -4.80794 2.31181 -5.53286 0 -0.000164368 0 0 0 0 0 0 0 0 0 0 0 0 0 0 0 0 0 160 0.002 
1276 6 0.0183422 0.0649219 -0.00484944 0 0 0 3.41813 -1.62082 -11.2197 0 -0.000164368 0 0 0 0 0 0 0 0 0 0 0 0 0 0 0 0 0 174 0.002 
321 7 0.00610668 0.0727282 0.00244649 0 0 0 -1.03676 11.838 -2.89378 0 -0.000164368 0 0 0 0 0 0 0 0 0 0 0 0 0 0 0 0 0 255 0.002 
966 3 0.00990869 0.0730888 0.00396868 0 0 0 0.0377513 1.26884 -1.63698 0 -0.000164368 0 0 0 0 0 0 0 0 0 0 0 0 0 0 0 0 0 179 0.002 
1679 7 0.0096484 0.0733875 0.009704 0 0 0 -2.87571 3.61765 0.811553 0 -0.000164368 0 0 0 0 0 0 0 0 0 0 0 0 0 0 0 0 0 157 0.002 
2485 3 0.0063788 0.0685708 0.00192829 0 0 0 4.43921 0.677786 -19.2507 0 -0.000164368 0 0 0 0 0 0 0 0 0 0 0 0 0 0 0 0 0 1 0.002 
1933 1 0.0185786 0.0578055 -0.0195732 0 0 0 -2.00113 -1.53542 1.51704 0 -0.000164368 0 0 0 0 0 0 0 0 0 0 0 0 0 0 0 0 0 48 0.002 
905 3 0.0116396 0.0407522 0.0379646 0 0 0 3.51723 7.88231 -5.47157 0 -0.000164368 0 0 0 0 0 0 0 0 0 0 0 0 0 0 0 0 0 156 0.002 
1027 1 0.00426367 0.0697521 0.0145816 0 0 0 1.86612 1.99301 -1.86062 0 -0.000164368 0 0 0 0 0 0 0 0 0 0 0 0 0 0 0 0 0 200 0.002 
1390 1 0.00297939 0.072587 0.0171284 0 0 0 0.0775363 0.595715 -0.738002 0.0365487 -0.00913081 0.00517481 1 0 0 0 0 0 0 0 0 0 0 0 0 0 0 0 149 0.002 
1977 1 0.0138849 0.0715023 0.0177847 0 0 0 0.84497 0.184609 -0.614583 0 -0.000164368 0 0 0 0 0 0 0 0 0 0 0 0 0 0 0 0 0 103 0.002 
1907 2 0.0186028 0.0731904 0.0176263 0 0 0 0.606964 -0.622924 -0.0833926 0 -0.000164368 0 0 0 0 0 0 0 0 0 0 0 0 0 0 0 0 0 98 0.002 
763 3 0.016412 0.0659888 0.0212651 0 0 0 -0.0867085 -0.958828 0.153957 0 -0.000164368 0 0 0 0 0 0 0 0 0 0 0 0 0 0 0 0 0 192 0.002 
764 4 0.0118594 0.0680136 0.0204559 0 0 0 0.685081 -0.0495981 -0.71753 0 -0.000164368 0 0 0 0 0 0 0 0 0 0 0 0 0 0 0 0 0 213 0.002 
273 3 0.0117765 0.0745739 0.0200342 0 0 0 -0.0408086 -0.409544 -0.19967 0 -0.000164368 0 0 0 0 0 0 0 0 0 0 0 0 0 0 0 0 0 178 0.002 
660 2 0.00635312 0.0613412 0.022145 0 0 0 -2.9241 0.455331 -1.76269 0 -0.000164368 0 0 0 0 0 0 0 0 0 0 0 0 0 0 0 0 0 176 0.002 
1385 1 0.0137119 0.0626683 0.0220245 0 0 0 0.0328267 -0.245624 -0.702512 0 -0.000164368 0 0 0 0 0 0 0 0 0 0 0 0 0 0 0 0 0 166 0.002 
2257 3 0.00443649 0.0711022 0.0213806 0 0 0 0.228587 0.103073 -0.477133 0 -0.000164368 0 0 0 0 0 0 0 0 0 0 0 0 0 0 0 0 0 39 0.002 
129 3 0.00867144 0.0726333 0.0240686 0 0 0 0.22555 -0.031152 -0.427064 0 -0.000164368 0 0 0 0 0 0 0 0 0 0 0 0 0 0 0 0 0 153 0.002 
1984 2 0.0168473 0.07211 0.0242318 0 0 0 -0.0587306 -0.210944 -0.0423688 0 -0.000164368 0 0 0 0 0 0 0 0 0 0 0 0 0 0 0 0 0 100 0.002 
1925 12 0.00333621 0.0745878 0.0242044 0 0 0 0.075825 -0.0867717 -0.0662895 0 -0.000164368 0 0 0 0 0 0 0 0 0 0 0 0 0 0 0 0 0 118 0.002 
1257 5 0.00398816 0.0681888 0.0274703 0 0 0 0.231478 -0.0582605 -0.0854284 0 -0.000164368 0 0 0 0 0 0 0 0 0 0 0 0 0 0 0 0 0 81 0.002 
2009 2 0.0128543 0.069971 0.0261957 0 0 0 -0.15048 -0.422996 0.164405 0 -0.000164368 0 0 0 0 0 0 0 0 0 0 0 0 0 0 0 0 0 94 0.002 
1952 1 0.00320455 0.0722083 0.0274263 0 0 0 -0.0141381 -0.0315522 -0.21968 0 -0.000164368 0 0 0 0 0 0 0 0 0 0 0 0 0 0 0 0 0 128 0.002 
1132 2 0.00912105 0.0709064 0.0278032 0 0 0 0.461861 0.219523 -0.149711 0 -0.000164368 0 0 0 0 0 0 0 0 0 0 0 0 0 0 0 0 0 169 0.002 
331 7 0.0114169 0.0656555 0.0295709 0 0 0 -0.134832 -0.724448 0.0137308 -0.000460751 9.23342e-06 0.00178214 0 0 0 0 0 0 1 0 0 0 0 0 0 0 0 0 244 0.002 
1300 2 0.00647697 0.0729939 0.0302253 0 0 0 0.0474942 -0.273991 -0.00653768 0 -0.000164368 0 0 0 0 0 0 0 0 0 0 0 0 0 0 0 0 0 166 0.002 
1627 4 0.0153965 0.0732399 0.0287944 0 0 0 0.121898 -0.24072 -0.120894 0 -0.000164368 0 0 0 0 0 0 0 0 0 0 0 0 0 0 0 0 0 132 0.002 
1660 4 0.00590972 0.0377725 0.0319242 0 0 0 0.876966 -2.07196 0.035721 0 -0.000164368 0 0 0 0 0 0 0 0 0 0 0 0 0 0 0 0 0 123 0.002 
742 3 0.00311185 0.0576401 0.0315373 0 0 0 -0.0144188 -0.331252 -0.0857742 8.81816e-05 5.37593e-05 -1.90957e-05 0 0 1 0 0 0 0 0 0 0 0 0 0 0 0 0 184 0.002 
1392 6 0.0107426 0.0595793 0.0315548 0 0 0 -0.109339 -0.850221 0.0449061 0 -0.000164368 0 0 0 0 0 0 0 0 0 0 0 0 0 0 0 0 0 158 0.002 
2036 13 0.00315757 0.0699643 0.0310017 0 0 0 0.0474929 -0.064337 -0.11112 0 -0.000164368 0 0 0 0 0 0 0 0 0 0 0 0 0 0 0 0 0 66 0.002 
2100 3 0.0176179 0.0684788 0.0321883 0 0 0 -0.00483356 -0.312926 -0.139824 0 -0.000164368 0 0 0 0 0 0 0 0 0 0 0 0 0 0 0 0 0 86 0.002 
1292 9 0.0125324 0.0701901 0.0304648 0 0 0 0.343845 -0.315035 0.092317 0 -0.000164368 0 0 0 0 0 0 0 0 0 0 0 0 0 0 0 0 0 185 0.002 
1520 7 0.00490195 0.0609128 0.0329772 0 0 0 0.000742853 -0.353776 0.000907949 -8.81816e-05 -0.000382496 1.90957e-05 0 0 1 0 0 0 0 0 0 0 0 0 0 0 0 0 131 0.002 
1715 4 0.00301645 0.0653584 0.0327273 0 0 0 0.0303174 -0.131109 -0.0186981 0 -0.000164368 0 0 0 0 0 0 0 0 0 0 0 0 0 0 0 0 0 137 0.002 
1218 8 0.00701205 0.0648338 0.0326471 0 0 0 -0.020794 -0.207755 -0.076298 0 -0.000164368 0 0 0 0 0 0 0 0 0 0 0 0 0 0 0 0 0 237 0.002 
125 10 0.0103261 0.0673905 0.0329989 0 0 0 0.0489155 -0.183293 -0.0659866 0.000460751 -0.00033797 -0.00178214 0 0 0 0 0 0 1 0 0 0 0 0 0 0 0 0 223 0.002 
1101 3 0.00695727 0.0700696 0.032936 0 0 0 0.0561393 -0.251399 -0.0417406 0 -0.000164368 0 0 0 0 0 0 0 0 0 0 0 0 0 0 0 0 0 248 0.002 
2217 2 0.00324444 0.073497 0.0329481 0 0 0 0.0344189 -0.114704 -0.00441202 0 -0.000164368 0 0 0 0 0 0 0 0 0 0 0 0 0 0 0 0 0 56 0.002 
2265 3 0.00971016 0.0729976 0.0325826 0 0 0 0.0600519 -0.215363 -0.00250421 0 -0.000164368 0 0 0 0 0 0 0 0 0 0 0 0 0 0 0 0 0 55 0.002 
2270 2 0.0141323 0.0730064 0.0329698 0 0 0 0.101437 0.0167106 -0.0719447 0 -0.000164368 0 0 0 0 0 0 0 0 0 0 0 0 0 0 0 0 0 30 0.002 
300 1 0.00522137 0.0770594 -0.0330027 0 0 0 -0.0263889 0.0441866 0.0578006 0.00998701 0.0188964 -0.0052191 2 0 0 0 0 0 0 0 0 0 0 0 0 0 0 0 226 0.002 
1959 12 0.00928703 0.0772099 -0.0325154 0 0 0 -0.0581117 0.0783181 0.136284 0 -0.000164368 0 0 0 0 0 0 0 0 0 0 0 0 0 0 0 0 0 93 0.002 
1448 13 0.0172932 0.0753733 -0.0329174 0 0 0 0.452623 -0.680007 -0.022304 0 -0.000164368 0 0 0 0 0 0 0 0 0 0 0 0 0 0 0 0 0 183 0.002 
1628 6 0.00582444 0.0810064 -0.0329475 0 0 0 -0.0319402 -0.127686 0.0108412 -0.00590592 0.010621 0.000254731 1 0 0 0 0 0 0 0 0 0 0 0 0 0 0 0 153 0.002 
1915 8 0.0123727 0.079894 -0.0326749 0 0 0 -0.00060438 0.185973 0.0226743 0 -0.000164368 0 0 0 0 0 0 0 0 0 0 0 0 0 0 0 0 0 101 0.002 
1469 6 0.00326422 0.08422 -0.0329791 0 0 0 -0.0352026 -0.108193 -0.00234915 0 -0.000164368 0 0 0 0 0 0 0 0 0 0 0 0 0 0 0 0 0 156 0.002 
770 4 0.00901719 0.083424 -0.0329994 0 0 0 -0.0391608 -0.112474 0.00498542 0 -0.000164368 0 0 0 0 0 0 0 0 0 0 0 0 0 0 0 0 0 61 0.002 
1626 1 0.0165121 0.082676 -0.0329698 0 0 0 0.0115983 -0.328598 0.00616439 0 -0.000164368 0 0 0 0 0 0 0 0 0 0 0 0 0 0 0 0 0 125 0.002 
1305 1 0.0129326 0.0847285 -0.0329452 0 0 0 -0.0612001 -0.259606 0.0307677 0 -0.000164368 0 0 0 0 0 0 0 0 0 0 0 0 0 0 0 0 0 166 0.002 
1620 1 0.00661382 0.0872213 -0.0329956 0 0 0 -0.0160836 -0.0508521 0.00529985 0 -0.000164368 0 0 0 0 0 0 0 0 0 0 0 0 0 0 0 0 0 92 0.002 
1098 3 0.0170385 0.0866793 -0.0329523 0 0 0 -0.321144 -0.190766 -0.292963 0 -0.000164368 0 0 0 0 0 0 0 0 0 0 0 0 0 0 0 0 0 159 0.002 
731 2 0.00319316 0.0900635 -0.03299 0 0 0 -0.0797297 -0.0825624 0.0132287 -0.00726108 -0.00368175 -0.000279106 0 1 0 0 0 0 0 0 0 0 0 0 0 0 0 0 198 0.002 
2431 1 0.0100885 0.0897925 -0.0330037 0 0 0 0.00292626 0.0038489 0.0409166 0.0031156 -0.000692273 -0.000854238 2 0 0 0 0 0 0 0 0 0 0 0 0 0 0 0 11 0.002 
2473 3 0.0140653 0.0894082 -0.0329579 0 0 0 0.0169354 -0.27661 0.108479 0.000170616 -0.000231465 7.48593e-05 1 0 0 0 0 0 0 0 0 0 0 0 0 0 0 0 4 0.002 
1329 3 0.00671756 0.0919273 -0.0329614 0 0 0 -0.0910187 -0.051655 -0.00188384 0.00386811 0.00398584 0.00128499 1 1 0 0 0 0 0 0 0 0 0 0 0 0 0 0 128 0.002 
960 3 0.0141733 0.0936793 -0.0329953 0 0 0 -0.0474996 -0.118999 -0.0146146 -0.0013374 0.000603572 -0.000372615 0 0 1 0 0 0 0 0 0 0 0 0 0 0 0 0 229 0.002 
383 6 0.0179055 0.0923034 -0.0326408 0 0 0 -0.0501991 -0.212094 -0.0467088 0.00012106 -0.000369659 -0.00157836 0 0 1 0 0 1 0 0 0 0 0 0 0 0 0 0 231 0.002 
1479 5 0.00299989 0.0940841 -0.0329849 0 0 0 0.0115635 -0.0274335 0.0224337 -0.00138078 -0.00202613 -4.92133e-05 0 0 0 0 1 0 0 0 0 0 0 0 0 0 0 0 154 0.002 
1180 3 0.00663769 0.0960276 -0.0329711 0 0 0 -0.0704515 0.000462961 -0.0523229 0 -0.000164368 0 0 0 0 0 0 0 0 0 0 0 0 0 0 0 0 0 179 0.002 
2435 3 0.0102119 0.0942213 -0.0329641 0 0 0 -0.0316168 0.0166478 0.0137235 -0.000262301 4.58504e-07 4.75132e-05 0 0 1 0 0 0 0 0 0 0 0 0 0 0 0 0 7 0.002 
1391 4 0.00299762 0.0980793 -0.0329865 0 0 0 0.00280097 -0.0325613 0.0178901 -0.000739205 0.00105707 0.000346266 0 0 0 0 1 0 0 0 0 0 0 0 0 0 0 0 79 0.002 
888 1 0.0129697 0.0977113 -0.0329897 0 0 0 -0.0305231 -0.0568799 0.0148583 -0.00233409 -0.00146416 -0.00085683 1 0 0 0 0 0 0 0 0 0 0 0 0 0 0 0 185 0.002 
1238 1 0.0169301 0.0966872 -0.0329986 0 0 0 -0.0438193 -0.0282832 0.000826142 0 -0.000164368 0 0 0 0 0 0 0 0 0 0 0 0 0 0 0 0 0 170 0.002 
635 4 0.0062801 0.100349 -0.0328696 0 0 0 -0.0104825 -0.00370309 -0.0490759 -0.00181859 -8.91333e-05 0.000136312 0 0 0 1 0 0 0 0 0 0 0 0 0 0 0 0 203 0.002 
679 5 0.0102415 0.100811 -0.0330004 0 0 0 -0.0134241 0.000581302 -0.00718947 0.00451511 -0.000406104 0.000133857 0 0 0 1 2 0 0 0 0 0 0 0 0 0 0 0 258 0.002 
1716 2 0.0153014 0.100959 -0.0329458 0 0 0 -0.135518 -0.0676776 0.0103196 0.00248455 0.00101992 0.000849229 1 1 0 0 0 0 0 0 0 0 0 0 0 0 0 0 104 0.002 
2349 1 0.005524 0.104398 -0.0329961 0 0 0 0.00275744 -0.0597008 0.00571283 0 -0.000164368 0 0 0 0 0 0 0 0 0 0 0 0 0 0 0 0 0 33 0.002 
1473 2 0.00955073 0.104748 -0.0330005 0 0 0 -0.0709963 -0.0215479 0.00525047 -0.000122787 -0.000435598 -0.000443918 0 3 0 0 1 0 0 0 0 0 0 0 0 0 0 0 120 0.002 
1161 6 0.0135421 0.104549 -0.0330045 0 0 0 -0.0608791 -0.0280975 0.00223303 -0.0006425 4.0379e-05 0.000236306 0 2 0 0 0 3 0 0 0 0 0 0 0 0 0 0 182 0.002 
1459 3 0.017546 0.104531 -0.0329276 0 0 0 -0.17432 0.141039 0.0185434 0 -0.000164368 0 0 0 0 0 0 0 0 0 0 0 0 0 0 0 0 0 133 0.002 
784 7 0.00329199 0.107982 -0.0329967 0 0 0 -0.000860318 -0.0185118 0.00610169 0 -0.000164368 0 0 0 0 0 0 0 0 0 0 0 0 0 0 0 0 0 211 0.002 
1090 12 0.00726406 0.107959 -0.0323433 0 0 0 -0.0479359 -0.0168562 0.00658682 -0.000266242 0.00137003 5.14839e-05 0 1 0 0 0 0 0 0 0 0 0 0 0 0 0 0 144 0.002 
1270 6 0.0116618 0.107997 -0.0319214 0 0 0 -0.0848511 0.049032 -0.0904313 0 -0.000164368 0 0 0 0 0 0 0 0 0 0 0 0 0 0 0 0 0 169 0.002 
17 4 0.0155472 0.108003 -0.0329455 0 0 0 -0.104706 -0.00233154 0.0174707 -0.000454505 -0.00044798 0.0013189 0 0 0 1 0 1 0 0 0 0 0 0 0 0 0 0 141 0.002 
464 6 0.00356676 0.0760218 -0.0295147 0 0 0 -0.0911805 0.106974 -0.375107 -0.00478067 -0.0280096 0.00292544 1 0 0 0 0 0 0 0 0 0 0 0 0 0 0 0 52 0.002 
1502 1 0.0135931 0.0763984 -0.0299666 0 0 0 0.529065 -0.372875 -0.0679442 0 -0.000164368 0 0 0 0 0 0 0 0 0 0 0 0 0 0 0 0 0 158 0.002 
1072 6 0.00679518 0.0790983 -0.0294886 0 0 0 -0.241824 -0.103612 0.12841 0.00739207 -0.0181754 -0.0212684 0 0 0 0 0 2 0 0 0 0 0 0 0 0 0 0 123 0.002 
823 9 0.00299234 0.0799784 -0.0302771 0 0 0 -0.0512234 0.362477 -0.0597337 -0.000346176 -0.011418 -0.00459927 0 0 0 0 0 1 0 0 0 0 0 0 0 0 0 0 183 0.002 
2462 4 0.0101121 0.0813162 -0.0292012 0 0 0 0.148954 -0.283995 0.125106 -0.0159963 0.000233547 -0.000237842 0 0 0 0 0 0 0 0 0 0 0 0 0 0 0 0 7 0.002 
1714 4 0.0185814 0.0797212 -0.0309597 0 0 0 0.133589 -0.161267 -0.0417326 0 -0.000164368 0 0 0 0 0 0 0 0 0 0 0 0 0 0 0 0 0 86 0.002 
296 2 0.0138891 0.0825951 -0.0296249 0 0 0 -0.0563735 -0.310902 0.062668 0.000209029 -0.000884676 0.000147592 0 1 0 0 0 0 0 0 0 0 0 0 0 0 0 0 199 0.002 
515 5 0.0180878 0.084099 -0.0295086 0 0 0 0.0905532 -0.213373 -0.023687 0 -0.000164368 0 0 0 0 0 0 0 0 0 0 0 0 0 0 0 0 0 217 0.002 
723 5 0.00649329 0.0849893 -0.029586 0 0 0 -0.0136301 -0.112451 -0.00233712 0 -0.000164368 0 0 0 0 0 0 0 0 0 0 0 0 0 0 0 0 0 203 0.002 
1498 5 0.0100318 0.0865226 -0.0306818 0 0 0 -0.0663386 -0.0374992 -0.0811238 0 -0.000164368 0 0 0 0 0 0 0 0 0 0 0 0 0 0 0 0 0 147 0.002 
1893 4 0.0144922 0.0865433 -0.0297169 0 0 0 -0.0519086 -0.277023 0.0354174 -0.000209029 0.00055594 -0.000147592 0 1 0 0 0 0 0 0 0 0 0 0 0 0 0 0 77 0.002 
420 3 0.00300045 0.0869748 -0.0300078 0 0 0 -0.0260077 0.0652894 -0.073726 -0.00440167 0.0152876 -0.00468078 0 0 1 0 0 0 0 0 0 0 0 0 0 0 0 0 106 0.002 
2040 7 0.0124053 0.0908293 -0.0295663 0 0 0 -0.00753973 -0.0836985 0.141148 0 -0.000164368 0 0 0 0 0 0 0 0 0 0 0 0 0 0 0 0 0 46 0.002 
1579 5 0.00880101 0.0931382 -0.0293814 0 0 0 -0.0507963 -0.0268731 -0.00264008 0.000234512 -0.000359009 -0.00135163 0 0 1 0 2 0 0 0 0 0 0 0 0 0 0 0 147 0.002 
2380 3 0.0122582 0.0952253 -0.0296687 0 0 0 -0.00372344 0.047225 0.00138426 0 -0.000164368 0 0 0 0 0 0 0 0 0 0 0 0 0 0 0 0 0 11 0.002 
1123 3 0.0162444 0.0949695 -0.0294357 0 0 0 -0.037569 -0.0832826 0.00976085 -0.0046542 0.000812592 0.000796917 0 0 2 0 0 0 0 0 0 0 0 0 0 0 0 0 117 0.002 
2253 10 0.010184 0.0987008 -0.0296041 0 0 0 -0.116756 0.0158534 0.0194118 0.000117597 -1.70362e-05 -9.8787e-05 0 0 0 0 1 0 0 0 0 1 0 0 0 0 0 0 50 0.002 
1868 4 0.0147886 0.0987183 -0.0295708 0 0 0 -0.0796596 -0.066509 0.0153299 -0.0024446 0.000111711 -0.000233147 0 0 0 1 0 0 0 0 0 0 0 0 0 0 0 0 87 0.002 
555 5 0.00300225 0.101414 -0.0307767 0 0 0 0.00927761 -0.00539679 -0.0217535 -0.000379739 7.72127e-05 -6.71196e-05 0 0 0 0 1 0 0 0 0 0 0 0 0 0 0 0 221 0.002 
1382 2 0.0126252 0.102064 -0.030011 0 0 0 -0.00360523 -0.0308704 0.00809855 -0.000359576 -0.000807761 0.000159795 0 1 0 0 0 1 0 0 0 0 0 0 0 0 0 0 158 0.002 
1360 1 0.00299988 0.105338 -0.0300037 0 0 0 0.0118039 -0.0190223 0.0233075 -0.000146248 -0.000472892 -0.000201167 2 0 0 0 0 0 0 0 0 0 0 0 0 0 0 0 137 0.002 
906 5 0.00933563 0.106131 -0.0292545 0 0 0 0.00229649 0.0124023 0.000113383 -0.00034095 -0.00218677 -0.000619128 0 1 0 0 2 0 0 0 0 0 0 0 0 0 0 0 248 0.002 
481 2 0.0149814 0.105813 -0.0295018 0 0 0 -0.0437298 -0.0104037 0.00557698 -0.000959231 -0.00146479 0.000666997 0 2 0 0 0 1 0 0 0 0 0 0 0 0 0 0 202 0.002 
2471 7 0.00835357 0.0754245 -0.0271718 0 0 0 -0.339285 -0.335644 -0.117128 0 -0.000164368 0 0 0 0 0 0 0 0 0 0 0 0 0 0 0 0 0 0 0.002 
1272 4 0.00309951 0.0839174 -0.0274566 0 0 0 -0.0868346 0.122847 -0.0930885 0.00440167 -0.0156164 0.00468078 0 0 1 0 0 0 0 0 0 0 0 0 0 0 0 0 143 0.002 
1314 3 0.0114619 0.0877641 -0.0271496 0 0 0 -0.120006 -0.167141 0.00428988 0 -0.000164368 0 0 0 0 0 0 0 0 0 0 0 0 0 0 0 0 0 160 0.002 
1822 3 0.00300541 0.0908746 -0.0290504 0 0 0 0.00660578 -0.023388 0.0323817 0 -0.000164368 0 0 0 0 0 0 0 0 0 0 0 0 0 0 0 0 0 111 0.002 
964 2 0.0076598 0.0893699 -0.0286975 0 0 0 0.107399 -0.107554 -0.23037 7.65668e-05 -0.00166981 0.000832395 0 0 0 0 1 0 0 0 0 0 0 0 0 0 0 0 187 0.002 
1155 5 0.0186314 0.0915589 -0.0287829 0 0 0 -0.0538204 -0.0646659 -0.0366017 0.0017777 -0.000372858 0.00146893 0 0 0 0 1 1 0 0 0 0 0 0 0 0 0 0 230 0.002 
2141 7 0.00309472 0.0947842 -0.0281309 0 0 0 -0.0308167 0.0331307 -0.0841292 0.00279976 -0.00236416 0.00388587 0 0 0 0 0 0 2 0 0 0 0 0 0 0 0 0 74 0.002 
1602 3 0.0068186 0.0965834 -0.0289821 0 0 0 -0.0289617 -0.00149501 -0.0160908 0.000274071 0.000560958 0.000351554 0 0 1 0 1 0 0 0 0 0 0 0 0 0 0 0 145 0.002 
1564 1 0.00300534 0.0987586 -0.0276983 0 0 0 -0.0042464 -0.0467342 0.0021151 -0.00128292 0.00216575 -0.00353877 0 0 0 0 0 0 1 0 0 0 0 0 0 0 0 0 103 0.002 
1787 1 0.00640292 0.100556 -0.0288557 0 0 0 0.00973058 0.0165835 -0.0299157 -0.00020997 0.00058642 0.000190583 0 0 1 0 1 0 0 0 0 0 0 0 0 0 0 0 129 0.002 
1099 2 0.00963143 0.102514 -0.0273997 0 0 0 0.00148827 -0.0303655 0.0242174 0.000807782 -0.00122102 -0.00296692 0 1 0 0 0 0 0 0 0 0 0 0 0 0 0 0 148 0.002 
2417 10 0.0160138 0.102297 -0.0279032 0 0 0 -0.00154437 0.0127499 0.0160764 8.04154e-05 0.00111473 1.25003e-06 0 2 0 0 0 0 0 0 0 2 0 0 0 0 0 0 29 0.002 
559 5 0.00611075 0.104376 -0.0276819 0 0 0 0.0164893 -0.0348505 0.0268728 -0.000124956 0.00238536 -0.00444428 1 1 0 0 1 0 0 0 0 0 0 0 0 0 0 0 198 0.002 
2214 8 0.00302604 0.107963 -0.0269854 0 0 0 0.0105147 -0.0278086 0.00268275 -0.000144077 0.000261501 0.000186435 1 0 0 0 0 0 0 0 0 0 0 0 0 0 0 0 47 0.002 
1866 2 0.0123587 0.108005 -0.0274379 0 0 0 -0.0068885 0.0079908 0.0178088 -0.000392773 -0.000978383 -0.000648929 0 0 0 0 1 0 0 0 0 0 0 0 0 0 0 0 123 0.002 
615 3 0.0030394 0.0786423 -0.0252598 0 0 0 0.0108711 -0.515393 -0.0657074 0 -0.000164368 0 0 0 0 0 0 0 0 0 0 0 0 0 0 0 0 0 129 0.002 
309 1 0.00986394 0.0790058 -0.0255473 0 0 0 -0.255288 -0.549833 0.186307 0 -0.000164368 0 0 0 0 0 0 0 0 0 0 0 0 0 0 0 0 0 190 0.002 
1729 4 0.00696758 0.0816772 -0.0264803 0 0 0 0.0747978 -0.0392166 0.048207 0.0082583 0.021531 0.0269906 0 0 0 0 0 1 0 0 0 0 0 0 0 0 0 0 100 0.002 
1532 7 0.0169258 0.0809872 -0.026102 0 0 0 -0.0280874 -0.922572 -0.262866 0 -0.000164368 0 0 0 0 0 0 0 0 0 0 0 0 0 0 0 0 0 136 0.002 
1207 4 0.0112149 0.0836881 -0.0261759 0 0 0 -0.450171 -0.251827 0.0596524 0.0159963 -0.000562284 0.000237842 0 0 0 0 0 0 0 0 0 0 0 0 0 0 0 0 150 0.002 
1568 2 0.00301258 0.0876951 -0.0260515 0 0 0 0.0026788 0.0285609 -0.0375954 0 -0.000164368 0 0 0 0 0 0 0 0 0 0 0 0 0 0 0 0 0 145 0.002 
938 2 0.0155395 0.0877857 -0.025984 0 0 0 -0.0246895 -0.151621 -0.000617012 0 -0.000164368 0 0 0 0 0 0 0 0 0 0 0 0 0 0 0 0 0 166 0.002 
1407 4 0.00299569 0.0920014 -0.0251522 0 0 0 0.00559925 0.0231835 0.0226089 -0.00460957 -0.000135784 -0.0014884 0 0 0 2 0 0 0 0 0 0 0 0 0 0 0 0 115 0.002 
912 8 0.006435 0.093724 -0.0262069 0 0 0 -0.0115853 0.0269168 0.0180881 0.00356991 0.00266824 -0.00368017 0 0 0 1 0 0 1 0 0 0 0 0 0 0 0 0 213 0.002 
485 2 0.0114351 0.0932284 -0.0262895 0 0 0 0.00595983 -0.0133557 -0.00153593 -9.41102e-05 0.00280312 -0.00384045 0 1 0 0 0 0 0 0 0 0 0 0 0 0 0 0 62 0.002 
758 4 0.0153046 0.0921723 -0.0266338 0 0 0 0.00767973 -0.112146 0.137398 0 -0.000164368 0 0 0 0 0 0 0 0 0 0 0 0 0 0 0 0 0 205 0.002 
1266 2 0.0143966 0.0959874 -0.0255272 0 0 0 -0.0398001 0.0136229 -0.122668 -0.00113388 -0.00153035 0.000107205 0 1 0 0 0 0 0 0 0 0 0 0 0 0 0 0 163 0.002 
500 5 0.0183198 0.094911 -0.0260192 0 0 0 0.0248086 -0.102183 -0.0443609 0.000799724 0.000145516 0.000638767 0 0 1 0 0 0 0 0 0 0 0 0 0 0 0 0 90 0.002 
701 10 0.00947749 0.0967382 -0.0259771 0 0 0 7.01947e-06 0.00917065 -0.0440361 0 -0.000164368 0 0 0 0 0 0 0 0 0 0 0 0 0 0 0 0 0 208 0.002 
332 2 0.00615727 0.0988202 -0.0251747 0 0 0 -0.00412308 0.0190012 0.0271461 0 -0.000164368 0 0 0 0 0 0 0 0 0 0 0 0 0 0 0 0 0 214 0.002 
1955 3 0.0124427 0.0993971 -0.0263781 0 0 0 -0.0376063 0.0759086 -0.0391638 -3.79779e-05 -0.00018947 -2.62717e-05 0 0 0 0 0 0 0 0 0 1 0 0 0 0 0 0 68 0.002 
179 1 0.0162146 0.0995115 -0.0250451 0 0 0 -0.0320308 0.00940179 -0.00613713 -3.35353e-05 -0.000675771 0.000214665 1 1 0 0 0 0 0 0 0 1 0 0 0 0 0 0 153 0.002 
2247 8 0.00299408 0.102446 -0.0261132 0 0 0 0.00458418 -0.00383981 0.015267 2.42146e-05 0.00719316 -0.00057752 0 0 0 0 1 0 0 1 0 0 0 0 0 0 0 0 52 0.002 
1756 2 0.0129936 0.104261 -0.0261467 0 0 0 0.00753931 0.0141385 -0.0252009 0.00423605 0.00142762 0.00143479 0 0 0 0 0 0 0 0 0 0 0 0 0 0 0 0 135 0.002 
1934 2 0.00728317 0.107994 -0.0263751 0 0 0 -0.0312853 0.0098965 -0.0235068 -8.0021e-05 0.000633606 0.000762612 0 1 0 0 1 0 0 0 0 0 0 0 0 0 0 0 101 0.002 
2272 5 0.0172502 0.108 -0.0269004 0 0 0 -0.0441844 -0.00255367 0.00745282 -7.11556e-05 0.000454174 0.00014562 0 0 0 0 1 0 0 0 0 0 0 0 0 0 0 0 40 0.002 
1742 9 0.0054116 0.084778 -0.0241976 0 0 0 -0.0321788 -0.16018 0.161548 0 -0.000164368 0 0 0 0 0 0 0 0 0 0 0 0 0 0 0 0 0 117 0.002 