ITEM: TIMESTEP
18550000
ITEM: NUMBER OF ATOMS
15772
ITEM: BOX BOUNDS ff ff ff
-0.01 0.45
-0.15 0.15
-0.08 0.1
ITEM: ATOMS id type x y z ix iy iz vx vy vz fx fy fz c_cc_1 c_cc_2 c_cc_3 c_cc_4 c_cc_5 c_cc_6 c_cc_7 c_cc_8 c_cc_9 c_cc_10 c_cc_11 c_cc_12 c_cc_13 c_cc_14 c_cc_15 c_cc_16 f_fppacc radius 
6096 1 0.0112012 -0.00947851 -0.0601217 0 0 0 -8.02445e-08 -3.03949e-13 -3.28013e-12 -8.03385e-20 0 0 0 0 0 0 0 0 0 0 0 0 0 0 0 0 0 0 177 0.001 
15145 2 0.00614152 -0.00799716 -0.060259 0 0 0 -4.64415e-06 3.27245e-13 3.53154e-12 7.86053e-20 0 0 0 0 0 0 0 0 0 0 0 0 0 0 0 0 0 0 0 0.001 
13129 1 0.0164892 -0.00874216 -0.0601899 0 0 0 3.80045e-07 -5.16871e-13 -5.57795e-12 9.72519e-21 0 0 0 0 0 0 0 0 0 0 0 0 0 0 0 0 0 0 84 0.001 
4650 5 0.0174642 -0.006682 -0.0603808 0 0 0 -6.96636e-07 5.91435e-14 6.38278e-13 -1.39989e-20 0 0 0 0 0 0 0 0 0 0 0 0 0 0 0 0 0 0 53 0.001 
2672 9 0.0128519 -0.00383692 -0.0606445 0 0 0 -1.16107e-06 -3.7921e-13 -4.09232e-12 -1.28386e-18 0 0 0 0 0 0 0 0 0 0 0 0 0 0 0 0 0 0 5 0.001 
2064 1 0.0150802 -0.00470154 -0.0605643 0 0 0 -7.23329e-07 9.83237e-14 1.06108e-12 1.36306e-21 0 0 0 0 0 0 0 0 0 0 0 0 0 0 0 0 0 0 31 0.001 
1908 2 0.0182577 -0.00394496 -0.0606344 0 0 0 3.81861e-07 3.91564e-13 4.22566e-12 -6.49628e-21 0 0 0 0 0 0 0 0 0 0 0 0 0 0 0 0 0 0 16 0.001 
189 6 0.00519779 -0.00217217 -0.0607997 0 0 0 0.0302955 0.0199469 0.114596 -0.00188145 -0.000829103 -0.00354158 0 0 0 0 0 0 0 0 0 0 0 0 0 0 0 0 0 0.001 
662 4 0.00750181 -0.00246271 -0.0607718 0 0 0 9.68416e-07 4.22897e-14 4.56366e-13 -1.26779e-18 0 0 0 0 0 0 0 0 0 0 0 0 0 0 0 0 0 0 2 0.001 
3374 8 0.00346681 -0.000469288 -0.0609565 0 0 0 7.74748e-07 -4.44267e-14 -4.7945e-13 3.68891e-20 0 0 0 0 0 0 0 0 0 0 0 0 0 0 0 0 0 0 3 0.001 
9473 5 0.00387632 -0.0146834 -0.0589727 0 0 0 -2.47889e-06 1.93972e-13 6.81741e-13 3.76832e-21 0 0 0 0 0 0 0 0 0 0 0 0 0 0 0 0 0 0 18 0.001 
8246 1 0.002473 -0.0121923 -0.0596815 0 0 0 8.56398e-06 1.55424e-13 5.46253e-13 -2.03539e-17 0 0 0 0 0 0 0 0 0 0 0 0 0 0 0 0 0 0 62 0.001 
11794 1 0.00644669 -0.0124238 -0.0596156 0 0 0 8.70523e-06 1.44762e-13 5.08784e-13 -1.48291e-21 0 0 0 0 0 0 0 0 0 0 0 0 0 0 0 0 0 0 86 0.001 
15477 2 0.0128913 -0.018684 -0.0578345 0 0 0 1.80534e-06 -8.79945e-13 -3.09268e-12 5.14874e-18 0 0 0 0 0 0 0 0 0 0 0 0 0 0 0 0 0 0 0 0.001 
4296 1 0.0112796 -0.0167277 -0.0583911 0 0 0 1.61221e-07 -1.12687e-12 -3.96054e-12 -6.76329e-21 0 0 0 0 0 0 0 0 0 0 0 0 0 0 0 0 0 0 248 0.001 
13614 12 0.00528097 -0.00376121 -0.05865 0 0 0 1.30746 -21.1367 2.99142 0.000119557 -0.00867765 -0.0201984 0 0 0 0 0 0 0 0 0 0 0 0 0 0 0 0 127 0.001 
12002 8 0.00246881 -0.0026604 -0.0583799 0 0 0 0.265126 -0.613944 0.516272 0 -2.0546e-05 0 0 0 0 0 0 0 0 0 0 0 0 0 0 0 0 0 185 0.001 
3178 3 0.0057882 -0.0228699 -0.0564655 0 0 0 -1.42899e-06 -1.00717e-12 -2.02268e-12 -5.15035e-18 0 0 0 0 0 0 0 0 0 0 0 0 0 0 0 0 0 0 89 0.001 
5036 9 0.00939603 -0.0232948 -0.0562539 0 0 0 3.23787e-07 -8.47536e-10 -7.81175e-10 -7.87919e-10 -2.79598e-10 1.64002e-10 0 0 0 0 0 0 0 0 0 0 0 0 0 0 0 0 0 0.001 
1471 4 0.0133212 -0.0219481 -0.0569057 0 0 0 -0.000680008 1.121e-13 3.93103e-13 6.6578e-18 -4.65123e-17 1.34441e-17 0 0 0 0 0 0 0 0 0 0 0 0 0 0 0 0 208 0.001 
14374 2 0.0135684 -0.0252446 -0.055283 0 0 0 -2.13441e-06 -1.95826e-12 -3.93272e-12 -1.03256e-17 0 0 0 0 0 0 0 0 0 0 0 0 0 0 0 0 0 0 30 0.001 
16414 2 0.0169455 -0.0245442 -0.0556317 0 0 0 5.36252e-07 -1.43521e-12 -2.88228e-12 2.56048e-18 0 0 0 0 0 0 0 0 0 0 0 0 0 0 0 0 0 0 0 0.001 
4355 5 0.0171788 -0.0284017 -0.053711 0 0 0 -1.31681e-06 -1.54058e-12 -3.0939e-12 -5.14894e-18 0 0 0 0 0 0 0 0 0 0 0 0 0 0 0 0 0 0 42 0.001 
3369 8 0.0133326 -0.032913 -0.0512586 0 0 0 8.53474e-08 9.53559e-13 1.26271e-12 6.45253e-19 0 0 0 0 0 0 0 0 0 0 0 0 0 0 0 0 0 0 154 0.001 
18384 6 0.00845479 -0.0233749 -0.0523098 0 0 0 -0.700806 -6.5774 1.35136 0 -2.0546e-05 0 0 0 0 0 0 0 0 0 0 0 0 0 0 0 0 0 0 0.001 
11275 4 0.00984064 -0.0339552 -0.0504716 0 0 0 -2.00558e-06 1.99554e-12 2.64251e-12 -2.0658e-19 0 0 0 0 0 0 0 0 0 0 0 0 0 0 0 0 0 0 36 0.001 
5229 2 0.00977516 -0.00843071 -0.0502735 0 0 0 4.72851 -19.7057 -2.0643 0 -2.0546e-05 0 0 0 0 0 0 0 0 0 0 0 0 0 0 0 0 0 183 0.001 
7733 8 0.00541467 -0.0231561 -0.0489058 0 0 0 0.193435 -14.2735 4.21873 0 -2.0546e-05 0 0 0 0 0 0 0 0 0 0 0 0 0 0 0 0 0 209 0.001 
2977 7 0.00180915 -0.0408914 -0.0452336 0 0 0 6.16991e-07 1.49096e-12 1.97435e-12 9.35127e-21 0 0 0 0 0 0 0 0 0 0 0 0 0 0 0 0 0 0 1 0.001 
2708 1 0.0181908 -0.0111283 -0.0457868 0 0 0 1.0595 4.67919 4.79583 0 -2.0546e-05 0 0 0 0 0 0 0 0 0 0 0 0 0 0 0 0 0 239 0.001 
11321 1 0.0104739 -0.0413297 -0.0448226 0 0 0 2.01394e-06 9.82052e-13 8.95258e-13 -2.06028e-17 0 0 0 0 0 0 0 0 0 0 0 0 0 0 0 0 0 0 75 0.001 
28 7 0.0174627 -0.0366261 -0.0442769 0 0 0 0.135411 -11.2219 8.06278 0 -2.0546e-05 0 0 0 0 0 0 0 0 0 0 0 0 0 0 0 0 0 224 0.001 
17312 2 0.0136909 -0.0301249 -0.0432881 0 0 0 2.68247 -3.00312 3.4194 0 -2.0546e-05 0 0 0 0 0 0 0 0 0 0 0 0 0 0 0 0 0 19 0.001 
8082 2 0.0164549 -0.0439009 -0.0420021 0 0 0 2.28722e-07 -8.89293e-13 -8.10699e-13 -5.11485e-18 0 0 0 0 0 0 0 0 0 0 0 0 0 0 0 0 0 0 141 0.001 
11770 1 0.0185188 -0.0459278 -0.0397787 0 0 0 -1.33057e-07 -6.47536e-13 -5.90306e-13 -9.24566e-20 0 0 0 0 0 0 0 0 0 0 0 0 0 0 0 0 0 0 80 0.001 
18310 4 0.00227988 -0.0259269 -0.0386785 0 0 0 0.048852 -2.50382 -0.2886 0 -2.0546e-05 0 0 0 0 0 0 0 0 0 0 0 0 0 0 0 0 0 0 0.001 
2398 2 0.00237291 -0.0489378 -0.0363429 0 0 0 -1.75877e-06 -1.14933e-12 -7.11635e-13 5.12676e-18 0 0 0 0 0 0 0 0 0 0 0 0 0 0 0 0 0 0 0 0.001 
2106 12 0.0097072 -0.0495372 -0.0353747 0 0 0 -3.05079e-06 4.68064e-12 2.89813e-12 1.40833e-21 0 0 0 0 0 0 0 0 0 0 0 0 0 0 0 0 0 0 5 0.001 
7015 1 0.0135881 -0.0493949 -0.0356046 0 0 0 -1.29801e-06 7.12377e-13 4.41086e-13 -5.08739e-18 0 0 0 0 0 0 0 0 0 0 0 0 0 0 0 0 0 0 180 0.001 
509 3 0.00971028 -0.0411367 -0.0358402 0 0 0 -1.02493 -20.6155 9.17899 0 -2.0546e-05 0 0 0 0 0 0 0 0 0 0 0 0 0 0 0 0 0 203 0.001 
1864 6 0.0176689 -0.0504099 -0.0339652 0 0 0 -1.56355e-06 -1.94421e-12 -1.2038e-12 -5.12735e-18 0 0 0 0 0 0 0 0 0 0 0 0 0 0 0 0 0 0 2 0.001 
12549 4 0.00811565 -0.0512866 -0.0325494 0 0 0 -4.85583e-06 -1.42817e-12 -8.84285e-13 -5.69525e-19 0 0 0 0 0 0 0 0 0 0 0 0 0 0 0 0 0 0 20 0.001 
502 8 0.0166068 -0.0518456 -0.0316466 0 0 0 -1.21779e-06 -2.40628e-12 -1.4899e-12 -5.10794e-18 0 0 0 0 0 0 0 0 0 0 0 0 0 0 0 0 0 0 1 0.001 
6361 6 0.00204041 -0.0126962 -0.0316384 0 0 0 -0.744822 -3.51323 2.22149 0 -2.0546e-05 0 0 0 0 0 0 0 0 0 0 0 0 0 0 0 0 0 219 0.001 
10503 7 0.01608 -0.0101486 -0.0323901 0 0 0 0.891471 -0.883247 1.81409 0 -2.0546e-05 0 0 0 0 0 0 0 0 0 0 0 0 0 0 0 0 0 174 0.001 
9617 3 0.0148258 -0.053149 -0.0295416 0 0 0 2.13598e-07 1.05074e-12 6.50587e-13 -6.37561e-21 0 0 0 0 0 0 0 0 0 0 0 0 0 0 0 0 0 0 32 0.001 
1073 2 0.0180189 -0.0442333 -0.0295364 0 0 0 1.15432 -2.23967 1.97425 0 -2.0546e-05 0 0 0 0 0 0 0 0 0 0 0 0 0 0 0 0 0 239 0.001 
7433 1 0.0142141 -0.0549846 -0.0262102 0 0 0 3.19808e-07 2.56487e-12 9.93635e-13 5.11208e-18 0 0 0 0 0 0 0 0 0 0 0 0 0 0 0 0 0 0 53 0.001 
9163 5 0.0181195 -0.055516 -0.0248383 0 0 0 -1.61759e-07 -4.74246e-12 -1.83724e-12 -2.57195e-18 0 0 0 0 0 0 0 0 0 0 0 0 0 0 0 0 0 0 2 0.001 
13474 3 0.012938 -0.0531676 -0.0228972 0 0 0 -0.216064 -6.92629 11.7942 0 -2.0546e-05 0 0 0 0 0 0 0 0 0 0 0 0 0 0 0 0 0 123 0.001 
6176 2 0.00487162 -0.0573424 -0.0201238 0 0 0 3.07732e-07 1.61806e-12 6.2684e-13 -5.17238e-18 0 0 0 0 0 0 0 0 0 0 0 0 0 0 0 0 0 0 80 0.001 
692 9 0.0141832 -0.0569484 -0.0211409 0 0 0 6.38767e-08 1.13422e-12 4.39399e-13 7.87294e-20 0 0 0 0 0 0 0 0 0 0 0 0 0 0 0 0 0 0 6 0.001 
13935 13 0.00472356 -0.0554669 -0.0187922 0 0 0 -5.09754 -2.25778 6.88554 0 -2.0546e-05 0 0 0 0 0 0 0 0 0 0 0 0 0 0 0 0 0 90 0.001 
15275 1 0.0111349 -0.0579046 -0.0186728 0 0 0 -1.81834e-07 4.49648e-12 1.74195e-12 -2.59127e-18 0 0 0 0 0 0 0 0 0 0 0 0 0 0 0 0 0 0 1 0.001 
601 3 0.00126296 -0.0586244 -0.0168168 0 0 0 3.62095e-08 5.86784e-13 2.2729e-13 -5.4823e-12 1.30104e-18 4.33681e-18 0 0 0 0 0 0 0 0 0 0 0 0 0 0 0 0 1 0.001 
12387 5 0.00471785 -0.0492739 -0.0115534 0 0 0 0.875352 -18.7184 8.39368 0 -2.0546e-05 0 0 0 0 0 0 0 0 0 0 0 0 0 0 0 0 0 94 0.001 
3634 2 0.0148625 -0.0602971 -0.0079968 0 0 0 1.24381e-06 2.54725e-12 4.76163e-13 -5.07419e-18 0 0 0 0 0 0 0 0 0 0 0 0 0 0 0 0 0 0 120 0.001 
10952 4 0.00255227 -0.0576981 -0.00444199 0 0 0 -5.15457 -0.580701 21.2628 0 -2.0546e-05 0 0 0 0 0 0 0 0 0 0 0 0 0 0 0 0 0 128 0.001 
5415 9 0.0124638 -0.0551311 -0.00431211 0 0 0 16.3104 4.00243 25.2978 0 -2.0546e-05 0 0 0 0 0 0 0 0 0 0 0 0 0 0 0 0 0 224 0.001 
5673 4 0.00989645 -0.0397237 -0.00417663 0 0 0 3.49627 -23.3563 21.3333 0 -2.0546e-05 0 0 0 0 0 0 0 0 0 0 0 0 0 0 0 0 0 235 0.001 
1114 5 0.0150811 -0.0607398 -0.00192851 0 0 0 -2.52317e-90 -5.39225e-12 2.04732e-89 3.44978e-91 0 -3.04447e-90 0 0 0 0 0 0 0 0 0 0 0 0 0 0 0 0 0 0.001 
619 1 0.0102341 -0.0586888 -0.00141111 0 0 0 4.25286 1.01337 11.1689 0 -2.0546e-05 0 0 0 0 0 0 0 0 0 0 0 0 0 0 0 0 0 253 0.001 
14781 2 0.0118409 -0.057613 -0.000777214 0 0 0 1.91389 -0.631192 13.3968 0 -2.0546e-05 0 0 0 0 0 0 0 0 0 0 0 0 0 0 0 0 0 71 0.001 
5421 2 0.0175815 -0.0594588 0.0124813 0 0 0 -4.9531e-07 -3.24607e-12 6.06797e-13 -2.40954e-19 0 0 0 0 0 0 0 0 0 0 0 0 0 0 0 0 0 0 64 0.001 
16182 1 0.00348858 -0.0587587 0.0162264 0 0 0 -5.11428e-07 1.78159e-12 -3.33038e-13 -2.52763e-18 0 0 0 0 0 0 0 0 0 0 0 0 0 0 0 0 0 0 0 0.001 
1418 11 0.00447347 -0.0576622 0.0192985 0 0 0 -5.62844e-07 5.57899e-13 -2.16131e-13 3.656e-19 0 0 0 0 0 0 0 0 0 0 0 0 0 0 0 0 0 0 3 0.001 
4178 1 0.0115857 -0.0567311 0.0217018 0 0 0 -5.53365e-07 2.22049e-12 -8.60221e-13 1.0277e-17 0 0 0 0 0 0 0 0 0 0 0 0 0 0 0 0 0 0 88 0.001 
6706 8 0.01852 -0.0530683 0.0296719 0 0 0 7.24048e-07 3.49776e-12 -2.16572e-12 3.59197e-22 0 0 0 0 0 0 0 0 0 0 0 0 0 0 0 0 0 0 19 0.001 
14112 6 0.015991 -0.0502177 0.0342756 0 0 0 -1.20939e-06 1.5555e-12 -9.63126e-13 -5.8312e-21 0 0 0 0 0 0 0 0 0 0 0 0 0 0 0 0 0 0 90 0.001 
8949 4 0.00788357 -0.0495848 0.0352979 0 0 0 -8.29898e-08 -2.36253e-12 1.46282e-12 4.40094e-22 0 0 0 0 0 0 0 0 0 0 0 0 0 0 0 0 0 0 163 0.001 
13599 1 0.0103026 -0.049495 0.0354429 0 0 0 6.24303e-07 6.58359e-12 -4.07639e-12 2.56529e-18 0 0 0 0 0 0 0 0 0 0 0 0 0 0 0 0 0 0 0 0.001 
11459 3 0.00616726 -0.0487192 0.0366958 0 0 0 0.00929866 -6.48501e-12 4.08947e-12 -9.009e-18 4.98733e-17 7.91468e-17 0 0 0 0 0 0 0 0 0 0 0 0 0 0 0 0 25 0.001 
12090 7 0.0142638 -0.0457649 0.0368144 0 0 0 0.819887 7.30313 10.5223 0 -2.0546e-05 0 0 0 0 0 0 0 0 0 0 0 0 0 0 0 0 0 164 0.001 
13217 2 0.00956174 -0.0529056 0.0395163 0 0 0 0.0511817 -0.291313 0.0615838 0 -2.0546e-05 0 0 0 0 0 0 0 0 0 0 0 0 0 0 0 0 0 8 0.001 
17051 5 0.00917015 -0.0463382 0.0393285 0 0 0 -3.22901e-07 -7.55102e-13 6.90842e-13 8.2001e-18 -2.34188e-17 -2.64545e-17 0 0 0 0 0 0 0 0 0 0 0 0 0 0 0 0 2 0.001 
18198 2 0.00504586 -0.0437173 0.0390895 0 0 0 0.799237 4.69206 4.62224 0 -2.0546e-05 0 0 0 0 0 0 0 0 0 0 0 0 0 0 0 0 0 2 0.001 
18162 4 0.0110403 -0.0403355 0.0414502 0 0 0 5.44766 7.3532 15.0495 0 -2.0546e-05 0 0 0 0 0 0 0 0 0 0 0 0 0 0 0 0 0 1 0.001 
7434 3 0.0119282 -0.0423099 0.0437473 0 0 0 -7.45241e-07 -3.1837e-12 2.90233e-12 -1.02864e-17 0 0 0 0 0 0 0 0 0 0 0 0 0 0 0 0 0 0 107 0.001 
2656 1 0.00330156 -0.0416428 0.0444792 0 0 0 -8.78612e-07 -1.69613e-12 1.54623e-12 1.01889e-17 0 0 0 0 0 0 0 0 0 0 0 0 0 0 0 0 0 0 109 0.001 
11052 9 0.0179944 -0.0384238 0.0470971 0 0 0 -1.90451e-06 -7.67605e-13 1.01647e-12 -1.03449e-17 0 0 0 0 0 0 0 0 0 0 0 0 0 0 0 0 0 0 0 0.001 
18240 3 0.00264006 -0.0325656 0.0479634 0 0 0 1.70362 6.91098 3.17138 0 -2.0546e-05 0 0 0 0 0 0 0 0 0 0 0 0 0 0 0 0 0 0 0.001 
6970 6 0.0111939 -0.0356393 0.0491998 0 0 0 -2.33784e-06 -1.37493e-12 1.82069e-12 1.03054e-17 -2.1684e-19 4.33681e-19 0 0 0 0 0 0 0 0 0 0 0 0 0 0 0 0 69 0.001 
1791 1 0.0176968 -0.0295328 0.0531477 0 0 0 -1.58089e-08 1.15358e-12 -2.3167e-12 -1.23118e-23 0 0 0 0 0 0 0 0 0 0 0 0 0 0 0 0 0 0 5 0.001 
6298 12 0.0139484 -0.0251428 0.0553337 0 0 0 -2.18676e-06 -2.44126e-07 -1.2155e-07 1.52514e-13 -2.77387e-13 1.02425e-13 0 0 0 0 0 0 0 0 0 0 0 1 0 0 0 0 122 0.001 
11361 3 0.0127312 -0.023725 0.0560397 0 0 0 2.18675e-06 2.44149e-07 1.21551e-07 -1.52241e-13 1.77746e-13 9.75322e-14 0 0 0 0 0 0 0 0 0 0 0 1 0 0 0 0 28 0.001 
469 4 0.0119031 -0.020454 0.0573308 0 0 0 -1.74207e-06 1.92802e-13 -6.77628e-13 -5.22562e-18 0 0 0 0 0 0 0 0 0 0 0 0 0 0 0 0 0 0 0 0.001 
12430 1 0.00806352 -0.014071 0.0568856 0 0 0 -0.253299 12.8617 2.93499 0 -2.0546e-05 0 0 0 0 0 0 0 0 0 0 0 0 0 0 0 0 0 85 0.001 
13531 4 0.0049274 -0.0057028 0.0565666 0 0 0 4.82658 14.0164 0.89624 0 -2.0546e-05 0 0 0 0 0 0 0 0 0 0 0 0 0 0 0 0 0 83 0.001 
3068 1 0.0044974 -0.018904 0.0577719 0 0 0 1.94269e-06 3.80551e-13 -1.3375e-12 -1.47832e-19 0 0 0 0 0 0 0 0 0 0 0 0 0 0 0 0 0 0 122 0.001 
1574 7 0.0159406 -0.0197958 0.0575181 0 0 0 -2.48314e-07 2.39479e-13 -8.41676e-13 1.3804e-20 0 0 0 0 0 0 0 0 0 0 0 0 0 0 0 0 0 0 5 0.001 
1895 6 0.00640592 -0.0179775 0.0580355 0 0 0 -2.68309e-06 2.97752e-13 -1.04649e-12 5.1259e-18 0 0 0 0 0 0 0 0 0 0 0 0 0 0 0 0 0 0 2 0.001 
143 3 0.0184201 -0.0176097 0.0581401 0 0 0 2.99702e-08 -2.73182e-13 9.60133e-13 -7.92433e-20 0 0 0 0 0 0 0 0 0 0 0 0 0 0 0 0 0 0 5 0.001 
689 3 0.0170095 -0.0138942 0.0591973 0 0 0 5.08125e-06 7.8793e-13 -2.76928e-12 2.02701e-19 0 0 0 0 0 0 0 0 0 0 0 0 0 0 0 0 0 0 192 0.001 
1944 2 0.00134014 -0.0113641 0.0599175 0 0 0 8.54272e-32 -2.92397e-17 9.18903e-17 1.92593e-34 0 0 0 0 0 0 0 0 0 0 0 0 0 0 0 0 0 0 3 0.001 
1056 1 0.00702209 -0.0122378 0.0596686 0 0 0 -1.13382e-06 -1.16781e-12 4.10442e-12 1.43876e-20 0 0 0 0 0 0 0 0 0 0 0 0 0 0 0 0 0 0 0 0.001 
7018 2 0.00620959 -0.00801171 0.0602576 0 0 0 2.96326e-06 -2.14017e-13 2.30961e-12 2.38394e-20 0 0 0 0 0 0 0 0 0 0 0 0 0 0 0 0 0 0 0 0.001 
3715 2 0.011452 -0.00505003 0.060532 0 0 0 1.67443e-07 -6.32656e-14 6.82733e-13 -1.58571e-19 0 0 0 0 0 0 0 0 0 0 0 0 0 0 0 0 0 0 146 0.001 
2569 3 0.00817551 -0.00182913 0.0608305 0 0 0 4.54412e-07 2.11273e-13 -2.28e-12 -6.51654e-19 0 0 0 0 0 0 0 0 0 0 0 0 0 0 0 0 0 0 0 0.001 
11626 5 0.0134906 -0.00248952 0.0607693 0 0 0 -2.92445e-07 4.13021e-13 -4.45722e-12 -9.71164e-23 0 0 0 0 0 0 0 0 0 0 0 0 0 0 0 0 0 0 40 0.001 
8351 3 0.00120534 -0.000123082 0.0609894 0 0 0 -1.27941e-11 -2.00698e-17 2.09312e-16 -1.5949e-13 0 0 0 0 0 0 0 0 0 0 0 0 0 0 0 0 0 0 0 0.001 
14362 3 0.00479249 0.00219546 -0.0607966 0 0 0 5.14675e-07 5.34383e-15 -5.766e-14 -6.45794e-19 0 0 0 0 0 0 0 0 0 0 0 0 0 0 0 0 0 0 7 0.001 
4375 7 0.008844 0.00130764 -0.0608788 0 0 0 1.19021e-06 2.00081e-13 -2.15923e-12 1.00989e-21 0 0 0 0 0 0 0 0 0 0 0 0 0 0 0 0 0 0 13 0.001 
7039 4 0.0186396 0.00215783 -0.0608 0 0 0 1.88813e-07 -3.21422e-13 3.46871e-12 7.75709e-23 0 0 0 0 0 0 0 0 0 0 0 0 0 0 0 0 0 0 23 0.001 
1623 1 0.00241507 0.0028674 -0.0607343 0 0 0 9.93e-08 9.4746e-14 -1.02246e-12 2.45244e-21 0 0 0 0 0 0 0 0 0 0 0 0 0 0 0 0 0 0 51 0.001 
14026 2 0.0077843 0.00303164 -0.0607191 0 0 0 -5.40038e-07 4.08217e-13 -4.40537e-12 -5.43922e-21 0 0 0 0 0 0 0 0 0 0 0 0 0 0 0 0 0 0 31 0.001 
16535 6 0.0104144 0.00306847 -0.0607157 0 0 0 -1.12119e-06 -3.57533e-13 3.85841e-12 -1.28785e-18 0 0 0 0 0 0 0 0 0 0 0 0 0 0 0 0 0 0 0 0.001 
257 15 0.0138707 0.00278782 -0.0607417 0 0 0 3.73987e-07 -1.8256e-13 1.97013e-12 -6.48228e-19 0 0 0 0 0 0 0 0 0 0 0 0 0 0 0 0 0 0 61 0.001 
11493 8 0.0162108 0.0032021 -0.0607033 0 0 0 7.39677e-07 -7.86994e-14 8.49292e-13 -6.84768e-21 0 0 0 0 0 0 0 0 0 0 0 0 0 0 0 0 0 0 10 0.001 
13415 3 0.00628078 0.00434944 -0.060597 0 0 0 5.3566e-07 -1.85319e-13 1.99991e-12 -6.45411e-19 0 0 0 0 0 0 0 0 0 0 0 0 0 0 0 0 0 0 12 0.001 
4274 12 0.0151752 0.00510076 -0.0605273 0 0 0 -4.90048e-07 -4.85685e-13 5.24137e-12 -6.53645e-19 0 0 0 0 0 0 0 0 0 0 0 0 0 0 0 0 0 0 223 0.001 
5387 10 0.0123844 0.00649909 -0.0603978 0 0 0 1.27367e-06 1.18673e-13 -1.28069e-12 -2.1718e-20 0 0 0 0 0 0 0 0 0 0 0 0 0 0 0 0 0 0 49 0.001 
12201 4 0.0151337 0.00722106 -0.0603309 0 0 0 1.33809e-07 2.41125e-13 -2.60215e-12 1.60545e-19 0 0 0 0 0 0 0 0 0 0 0 0 0 0 0 0 0 0 161 0.001 
15619 3 0.0170097 0.006451 -0.0604022 0 0 0 4.19612e-07 -3.93355e-13 4.24497e-12 2.55149e-21 0 0 0 0 0 0 0 0 0 0 0 0 0 0 0 0 0 0 19 0.001 
867 7 0.0039019 0.00816487 -0.0602434 0 0 0 6.1017e-07 -5.61627e-13 6.06092e-12 -1.70763e-21 0 0 0 0 0 0 0 0 0 0 0 0 0 0 0 0 0 0 11 0.001 
12866 4 0.00604681 0.00943577 -0.0601256 0 0 0 7.41764e-07 1.10394e-13 -1.19133e-12 2.64475e-21 5.42101e-20 0 0 0 0 0 0 0 0 0 0 0 0 0 0 0 0 0 18 0.001 
2383 11 0.00910429 0.00929338 -0.0601388 0 0 0 1.36886e-06 3.20251e-13 -3.45606e-12 -1.27867e-20 5.42101e-20 -4.33681e-19 0 0 0 0 0 0 0 0 0 0 0 0 0 0 0 0 151 0.001 
16635 11 0.0171962 0.0106813 -0.0600102 0 0 0 8.48904e-07 1.94256e-13 -2.09636e-12 -2.18783e-20 0 0 0 0 0 0 0 0 0 0 0 0 0 0 0 0 0 0 0 0.001 
12858 3 0.00928366 0.000726008 -0.0588813 0 0 0 1.41348 -15.58 -0.95742 0 -2.0546e-05 0 0 0 0 0 0 0 0 0 0 0 0 0 0 0 0 0 106 0.001 
17663 5 0.0124362 0.0108855 -0.0599913 0 0 0 -9.47445e-08 -4.2692e-14 -3.34441e-12 2.72976e-14 3.90146e-14 7.04471e-15 0 0 0 0 0 0 0 0 0 0 0 0 0 0 0 0 0 0.001 
92 8 0.00103688 0.0117684 -0.0598021 0 0 0 -3.67414e-07 2.01545e-13 -7.08352e-13 7.83809e-21 0 0 0 0 0 0 0 0 0 0 0 0 0 0 0 0 0 0 31 0.001 
2444 6 0.00609684 0.012541 -0.0595823 0 0 0 -6.6959e-07 7.33645e-08 2.08791e-08 -6.48045e-14 -3.06081e-14 7.68352e-15 0 0 0 0 0 1 0 0 0 0 0 0 0 0 0 0 150 0.001 
11556 2 0.00369765 0.0134199 -0.0593322 0 0 0 -5.36315e-07 4.62777e-13 -1.62649e-12 -1.26855e-18 0 0 0 0 0 0 0 0 0 0 0 0 0 0 0 0 0 0 41 0.001 
4260 1 0.00793827 0.0132842 -0.0593708 0 0 0 6.69583e-07 -7.33677e-08 -2.08791e-08 6.49704e-14 2.59362e-14 9.06133e-15 0 0 0 0 0 1 0 0 0 0 0 0 0 0 0 0 49 0.001 
16094 3 0.0170153 0.013778 -0.0592303 0 0 0 7.69331e-07 -5.59685e-13 1.96709e-12 3.46191e-20 0 0 0 0 0 0 0 0 0 0 0 0 0 0 0 0 0 0 27 0.001 
7693 4 0.00119639 0.0143881 -0.0590567 0 0 0 4.4173e-07 4.03635e-13 -1.41862e-12 -1.30198e-18 0 0 0 0 0 0 0 0 0 0 0 0 0 0 0 0 0 0 87 0.001 
16332 3 0.00924615 0.0149646 -0.0588927 0 0 0 1.26725e-07 -4.39091e-13 1.54324e-12 5.36571e-21 0 0 0 0 0 0 0 0 0 0 0 0 0 0 0 0 0 0 1 0.001 
14867 3 0.0119432 0.0149506 -0.0588967 0 0 0 -8.88181e-07 -2.50779e-13 8.81395e-13 -2.59035e-18 0 0 0 0 0 0 0 0 0 0 0 0 0 0 0 0 0 0 2 0.001 
7277 4 0.0140596 0.0147567 -0.0589519 0 0 0 4.91457e-07 -3.47305e-13 1.22065e-12 -1.28296e-18 0 0 0 0 0 0 0 0 0 0 0 0 0 0 0 0 0 0 106 0.001 
16366 1 0.0062346 0.0158458 -0.058642 0 0 0 -3.28817e-07 -2.7088e-13 9.5204e-13 3.31812e-22 0 0 0 0 0 0 0 0 0 0 0 0 0 0 0 0 0 0 0 0.001 
6982 5 0.017463 0.0163611 -0.0584954 0 0 0 6.57933e-07 -1.53666e-09 -4.37151e-10 3.9295e-12 2.2224e-15 -8.75602e-15 0 0 0 0 1 0 0 0 0 0 0 0 0 0 0 0 56 0.001 
9322 5 0.00421062 0.0173788 -0.0582058 0 0 0 5.32243e-07 1.35973e-13 -4.77898e-13 8.6912e-21 0 0 0 0 0 0 0 0 0 0 0 0 0 0 0 0 0 0 23 0.001 
15343 3 0.0086222 0.0175307 -0.0581626 0 0 0 3.70151e-07 1.87976e-13 -6.60671e-13 -1.18159e-20 0 0 0 0 0 0 0 0 0 0 0 0 0 0 0 0 0 0 9 0.001 
11407 11 0.0148526 0.0168048 -0.0583691 0 0 0 -1.03508e-06 -4.93638e-13 1.73496e-12 2.54747e-18 0 0 0 0 0 0 0 0 0 0 0 0 0 0 0 0 0 0 90 0.001 
6083 3 0.00123473 0.0180354 -0.058019 0 0 0 -2.05266e-07 3.47395e-13 -1.22096e-12 -8.78804e-21 0 0 0 0 0 0 0 0 0 0 0 0 0 0 0 0 0 0 22 0.001 
3736 2 0.00628719 0.018671 -0.0578381 0 0 0 1.91855e-07 6.74267e-13 -2.3698e-12 -3.18295e-19 0 0 0 0 0 0 0 0 0 0 0 0 0 0 0 0 0 0 48 0.001 
16790 2 0.012748 0.0187571 -0.0578137 0 0 0 8.6626e-08 -5.61852e-13 1.9747e-12 -1.59558e-19 0 0 0 0 0 0 0 0 0 0 0 0 0 0 0 0 0 0 5 0.001 
9013 3 0.0175007 0.0182842 -0.0579482 0 0 0 -1.77234e-06 1.53684e-09 4.37146e-10 3.92928e-12 2.37115e-15 -7.39469e-15 0 0 0 0 1 0 0 0 0 0 0 0 0 0 0 0 55 0.001 
1500 1 0.00280614 0.0192595 -0.0576707 0 0 0 -1.94458e-09 9.11557e-13 -3.20379e-12 -5.05284e-21 -1.0842e-19 0 0 0 0 0 0 0 0 0 0 0 0 0 0 0 0 0 62 0.001 
3377 7 0.00812911 0.0196267 -0.0575662 0 0 0 -6.44337e-08 3.1131e-13 -1.09414e-12 -1.60589e-19 0 0 0 0 0 0 0 0 0 0 0 0 0 0 0 0 0 0 110 0.001 
7415 5 0.0100671 0.0191437 -0.0577037 0 0 0 9.60724e-07 -2.84068e-13 9.98396e-13 5.72812e-20 0 0 0 0 0 0 0 0 0 0 0 0 0 0 0 0 0 0 23 0.001 
11606 5 0.0158958 0.00680933 -0.0567194 0 0 0 0.00180387 -4.47456 -9.03507 0 -2.0546e-05 0 0 0 0 0 0 0 0 0 0 0 0 0 0 0 0 0 148 0.001 
2071 2 0.000998674 0.020087 -0.0574353 0 0 0 -3.63198e-20 1.17861e-17 -4.36043e-17 0 0 0 0 0 0 0 0 0 0 0 0 0 0 0 0 0 0 0 15 0.001 
17148 10 0.0168872 0.0202636 -0.057385 0 0 0 1.95659e-06 1.16709e-12 -4.1019e-12 -6.22311e-20 0 0 0 0 0 0 0 0 0 0 0 0 0 0 0 0 0 0 0 0.001 
8216 11 0.00435078 0.0214936 -0.0570351 0 0 0 8.04072e-07 2.68103e-13 -9.42283e-13 -1.28481e-18 0 0 0 0 0 0 0 0 0 0 0 0 0 0 0 0 0 0 71 0.001 
4834 4 0.00686093 0.0215196 -0.0570276 0 0 0 -5.01332e-07 6.04989e-13 -2.12631e-12 1.29114e-18 0 0 0 0 0 0 0 0 0 0 0 0 0 0 0 0 0 0 101 0.001 
17553 6 0.00910989 0.0215122 -0.0570298 0 0 0 -4.47484e-07 -1.68835e-12 5.93393e-12 -1.27384e-18 0 0 0 0 0 0 0 0 0 0 0 0 0 0 0 0 0 0 2 0.001 
6245 3 0.0137041 0.0206572 -0.057273 0 0 0 -6.23601e-07 -2.78692e-13 9.79504e-13 1.28726e-18 0 0 0 0 0 0 0 0 0 0 0 0 0 0 0 0 0 0 211 0.001 
1211 2 0.00102079 0.0220242 -0.0568823 0 0 0 2.41421e-13 1.30739e-17 -3.47001e-17 -1.58555e-14 0 0 0 0 0 0 0 0 0 0 0 0 0 0 0 0 0 0 15 0.001 
2367 9 0.0027523 0.0229804 -0.0564104 0 0 0 4.33168e-07 -2.09716e-12 4.21167e-12 -5.15374e-20 0 0 0 0 0 0 0 0 0 0 0 0 0 0 0 0 0 0 103 0.001 
15946 5 0.00506928 0.0145305 -0.055219 0 0 0 0.326788 -1.80811 -1.52741 0 -2.0546e-05 0 0 0 0 0 0 0 0 0 0 0 0 0 0 0 0 0 25 0.001 
1684 3 0.00512873 0.0239582 -0.0559235 0 0 0 2.44587e-07 -9.55095e-13 1.91809e-12 6.39916e-19 0 0 0 0 0 0 0 0 0 0 0 0 0 0 0 0 0 0 65 0.001 
2897 9 0.00718719 0.0238385 -0.0559832 0 0 0 2.02676e-07 -3.69838e-13 7.42738e-13 1.22962e-20 0 0 0 0 0 0 0 0 0 0 0 0 0 0 0 0 0 0 131 0.001 
864 1 0.0120006 0.0238295 -0.0559876 0 0 0 -2.82683e-07 -1.54826e-12 3.10932e-12 1.0087e-19 0 0 0 0 0 0 0 0 0 0 0 0 0 0 0 0 0 0 247 0.001 
1091 6 0.00105273 0.0244247 -0.0556913 0 0 0 1.26488e-07 -1.32706e-12 2.6651e-12 -3.21143e-19 0 0 0 0 0 0 0 0 0 0 0 0 0 0 0 0 0 0 31 0.001 
486 2 0.00297348 0.0250951 -0.0553574 0 0 0 1.40721e-07 -3.05659e-09 -1.55484e-09 5.07928e-16 9.07412e-15 -7.07767e-15 0 1 0 0 0 0 0 0 0 0 0 0 0 0 0 0 78 0.001 
11211 7 0.00980767 0.0248594 -0.0554748 0 0 0 -4.02971e-07 -4.52848e-08 -2.24057e-08 8.421e-16 1.27773e-15 -5.96745e-15 0 0 0 0 0 0 1 0 0 0 0 0 0 0 0 0 89 0.001 
11003 5 0.0151435 0.0247872 -0.0555107 0 0 0 4.72753e-07 -1.58515e-12 3.18341e-12 1.2917e-18 0 0 0 0 0 0 0 0 0 0 0 0 0 0 0 0 0 0 41 0.001 
2399 7 0.00687794 0.0257531 -0.0550298 0 0 0 -1.98517e-08 1.56676e-13 -3.14648e-13 -7.10012e-25 0 0 0 0 0 0 0 0 0 0 0 0 0 0 0 0 0 0 78 0.001 
9519 3 0.0116267 0.0256392 -0.0550865 0 0 0 7.92766e-07 5.17169e-13 -1.03861e-12 2.17392e-22 0 0 0 0 0 0 0 0 0 0 0 0 0 0 0 0 0 0 76 0.001 
18284 12 0.00623766 0.0190008 -0.0541253 0 0 0 2.93764 -7.82921 -4.96312 0 -2.0546e-05 0 0 0 0 0 0 0 0 0 0 0 0 0 0 0 0 0 0 0.001 
5012 3 0.00940593 0.0235602 -0.0537591 0 0 0 1.16047 -2.98804 -1.33723 0 -2.0546e-05 0 0 0 0 0 0 0 0 0 0 0 0 0 0 0 0 0 218 0.001 
5377 3 0.00512105 0.0266694 -0.0545735 0 0 0 1.21088e-07 2.05383e-09 1.03387e-09 6.57473e-15 -3.4586e-15 5.30652e-15 0 0 1 0 0 0 0 0 0 0 0 0 0 0 0 0 117 0.001 
5290 2 0.00898859 0.0264871 -0.0546643 0 0 0 4.02972e-07 4.52797e-08 2.24057e-08 -9.92045e-16 -1.13178e-14 2.68665e-14 0 0 0 0 0 0 1 0 0 0 0 0 0 0 0 0 42 0.001 
979 5 0.0132934 0.0266352 -0.0545905 0 0 0 -1.14332e-06 -1.65376e-12 3.3212e-12 4.80706e-20 0 0 0 0 0 0 0 0 0 0 0 0 0 0 0 0 0 0 16 0.001 
2070 6 0.00313508 0.0268755 -0.0544709 0 0 0 -1.20891e-07 1.00267e-09 5.20415e-10 -7.05605e-15 -8.1094e-15 6.95321e-15 0 1 1 0 0 0 0 0 0 0 0 0 0 0 0 0 33 0.001 
7416 6 0.00725487 0.0278361 -0.0539926 0 0 0 2.73289e-07 -1.38565e-07 -7.13707e-08 2.23003e-09 -8.74932e-10 -1.25917e-09 0 0 0 0 0 0 0 0 0 0 0 0 0 0 0 0 80 0.001 
7184 2 0.0180476 0.0271793 -0.0543196 0 0 0 -4.19006e-08 1.04506e-12 -2.09877e-12 -1.61303e-19 0 0 0 0 0 0 0 0 0 0 0 0 0 0 0 0 0 0 9 0.001 
3610 8 0.0035345 0.0291801 -0.0533233 0 0 0 8.21823e-06 1.39691e-05 6.99308e-06 1.29254e-06 1.93571e-06 9.57816e-07 0 0 0 0 0 0 0 2 0 0 0 0 0 0 0 0 17 0.001 
1235 6 0.00544907 0.0286644 -0.0535801 0 0 0 1.02997e-06 2.45917e-07 1.07082e-07 3.93738e-08 -2.84153e-08 -1.19785e-08 0 0 0 0 0 0 0 1 0 0 0 0 0 0 0 0 180 0.001 
5934 6 0.0091185 0.028773 -0.0535261 0 0 0 -2.4767e-07 1.19057e-12 -2.39099e-12 -1.60642e-22 0 0 0 0 0 0 0 0 0 0 0 0 0 0 0 0 0 0 20 0.001 
15734 9 0.0111198 0.0289493 -0.0534382 0 0 0 -4.32017e-07 1.3285e-12 -2.66798e-12 -9.91625e-20 0 0 0 0 0 0 0 0 0 0 0 0 0 0 0 0 0 0 4 0.001 
2753 5 0.0020965 0.0304203 -0.0527057 0 0 0 -3.79232e-05 -7.84272e-06 -2.73636e-06 -4.94315e-06 -2.44631e-07 -1.68194e-07 0 0 0 0 1 0 0 1 0 0 0 0 0 0 0 0 29 0.001 
12048 5 0.00731968 0.0298828 -0.0529734 0 0 0 -6.16936e-08 1.2937e-12 -2.59811e-12 1.38453e-20 0 0 0 0 0 0 0 0 0 0 0 0 0 0 0 0 0 0 21 0.001 
15532 7 0.0133396 0.0301673 -0.0528317 0 0 0 1.55699e-06 -2.31419e-12 4.64752e-12 -5.06904e-18 0 0 0 0 0 0 0 0 0 0 0 0 0 0 0 0 0 0 0 0.001 
2939 2 0.00515488 0.0307712 -0.0525311 0 0 0 7.20954e-08 4.18411e-13 -8.40286e-13 -4.57195e-23 0 0 0 0 0 0 0 0 0 0 0 0 0 0 0 0 0 0 124 0.001 
14264 1 0.00921613 0.030605 -0.0526138 0 0 0 7.1963e-08 4.77557e-13 -9.59064e-13 1.71652e-20 0 0 0 0 0 0 0 0 0 0 0 0 0 0 0 0 0 0 1 0.001 
8956 2 0.0186096 0.0306884 -0.0525723 0 0 0 4.5002e-07 1.73877e-12 -3.49192e-12 1.29445e-18 0 0 0 0 0 0 0 0 0 0 0 0 0 0 0 0 0 0 73 0.001 
606 1 0.00101373 0.0320023 -0.051918 0 0 0 -9.54631e-08 1.24317e-12 -2.49662e-12 -3.2154e-19 0 0 0 0 0 0 0 0 0 0 0 0 0 0 0 0 0 0 22 0.001 
8033 6 0.00303589 0.0319937 -0.0519233 0 0 0 9.07311e-06 -0.000156642 0.000168908 5.52931e-06 -6.13317e-06 -1.38337e-06 0 0 0 0 1 1 0 0 0 0 0 0 0 0 0 0 107 0.001 
10281 7 0.00475873 0.0328028 -0.0513411 0 0 0 4.83572e-05 9.78541e-05 -0.000172831 -1.48621e-06 5.67968e-06 2.01741e-06 0 0 0 0 0 1 2 0 0 0 0 0 0 0 0 0 36 0.001 
4111 1 0.00657846 0.0321506 -0.0518334 0 0 0 0.000227552 3.42033e-05 -1.79269e-05 -2.75142e-07 -7.44471e-07 -9.37474e-07 0 0 0 0 0 0 1 0 0 0 0 0 0 0 0 0 202 0.001 
894 10 0.00271984 0.0291711 -0.0500308 0 0 0 2.16511 -7.66351 -1.80464 0 -2.0546e-05 0 0 0 0 0 0 0 0 0 0 0 0 0 0 0 0 0 219 0.001 
5552 1 0.00274702 0.0342173 -0.0502738 0 0 0 -0.0470089 0.279059 0.210893 0.000284634 -0.00177232 -0.00118513 0 0 0 0 0 0 0 0 0 0 0 0 0 0 0 0 42 0.001 
12657 2 0.00635985 0.0337529 -0.0506246 0 0 0 2.28808e-06 -1.0124e-06 7.14722e-06 1.24884e-06 -8.27443e-07 -5.72e-07 0 1 0 0 0 0 1 0 0 0 0 0 0 0 0 0 50 0.001 
3321 11 0.00834317 0.0335476 -0.0507794 0 0 0 5.97824e-07 2.80803e-07 2.12171e-07 4.12135e-08 1.14358e-08 8.64097e-09 0 1 0 0 0 0 0 0 0 0 0 0 0 0 0 0 183 0.001 
11242 7 0.0152677 0.0339069 -0.050508 0 0 0 -2.26e-07 -3.65903e-13 4.84532e-13 1.28579e-18 0 0 0 0 0 0 0 0 0 0 0 0 0 0 0 0 0 0 182 0.001 
4041 2 0.0105192 0.0280291 -0.0489209 0 0 0 4.9862 -4.51861 -1.18717 0 -2.0546e-05 0 0 0 0 0 0 0 0 0 0 0 0 0 0 0 0 0 204 0.001 
1215 2 0.00508616 0.0352512 -0.0494929 0 0 0 2.16603e-08 -6.4673e-13 8.56407e-13 8.84798e-22 0 0 0 0 0 0 0 0 0 0 0 0 0 0 0 0 0 0 129 0.001 
8314 1 0.0113443 0.0350492 -0.0496455 0 0 0 -2.23556e-06 4.13492e-13 -5.47551e-13 -1.02399e-17 0 0 0 0 0 0 0 0 0 0 0 0 0 0 0 0 0 0 178 0.001 
4018 4 0.00161844 0.0357595 -0.0491091 0 0 0 -3.82018e-07 7.93203e-13 -1.05037e-12 -3.56944e-20 0 0 0 0 0 0 0 0 0 0 0 0 0 0 0 0 0 0 13 0.001 
4895 9 0.0169775 0.0360127 -0.0489178 0 0 0 -1.3448e-07 7.28213e-13 -9.64309e-13 -7.55208e-21 -2.1684e-19 4.33681e-19 0 0 0 0 0 0 0 0 0 0 0 0 0 0 0 0 105 0.001 
4237 5 0.00644264 0.0365092 -0.0485429 0 0 0 1.0972e-08 -2.49746e-12 3.30716e-12 5.66515e-22 0 0 0 0 0 0 0 0 0 0 0 0 0 0 0 0 0 0 45 0.001 
4403 8 0.00850855 0.0365032 -0.0485474 0 0 0 -1.70534e-07 1.599e-12 -2.11741e-12 -2.85096e-20 0 0 0 0 0 0 0 0 0 0 0 0 0 0 0 0 0 0 28 0.001 
3662 8 0.00267306 0.0372283 -0.0479998 0 0 0 -5.07923e-07 -1.19277e-13 1.57947e-13 -2.54954e-18 0 0 0 0 0 0 0 0 0 0 0 0 0 0 0 0 0 0 26 0.001 
11352 6 0.00748185 0.0378761 -0.0475107 0 0 0 1.72035e-07 -1.63586e-12 2.16623e-12 -6.29885e-23 0 0 0 0 0 0 0 0 0 0 0 0 0 0 0 0 0 0 29 0.001 
11045 3 0.00948664 0.0380951 -0.0473453 0 0 0 3.34032e-07 1.67616e-13 -2.2196e-13 -2.35779e-19 0 0 0 0 0 0 0 0 0 0 0 0 0 0 0 0 0 0 33 0.001 
4503 11 0.00521054 0.0384351 -0.0470885 0 0 0 3.92896e-07 1.34471e-12 -1.78068e-12 -2.55824e-18 0 0 0 0 0 0 0 0 0 0 0 0 0 0 0 0 0 0 55 0.001 
16409 8 0.0156414 0.0388191 -0.0467985 0 0 0 -1.0656e-06 1.10513e-12 -1.46342e-12 7.12472e-20 0 0 0 0 0 0 0 0 0 0 0 0 0 0 0 0 0 0 33 0.001 
8954 4 0.0164076 0.0285197 -0.0454406 0 0 0 0.461069 -2.1056 -1.83877 0 -2.0546e-05 0 0 0 0 0 0 0 0 0 0 0 0 0 0 0 0 0 166 0.001 
2020 4 0.0022474 0.0399426 -0.0459501 0 0 0 5.04286e-08 4.14361e-12 -5.48703e-12 3.20463e-19 0 0 0 0 0 0 0 0 0 0 0 0 0 0 0 0 0 0 24 0.001 
11289 3 0.00428174 0.0398507 -0.0460195 0 0 0 3.97615e-07 -1.91639e-12 2.53771e-12 2.57028e-18 0 0 0 0 0 0 0 0 0 0 0 0 0 0 0 0 0 0 31 0.001 
10790 7 0.00640442 0.0406477 -0.0454176 0 0 0 -1.42155e-08 6.22102e-13 -8.23798e-13 -8.08689e-20 0 0 0 0 0 0 0 0 0 0 0 0 0 0 0 0 0 0 10 0.001 
311 3 0.0112407 0.0399114 -0.0459737 0 0 0 -1.51752e-06 9.34917e-13 -1.23803e-12 2.8698e-20 0 0 0 0 0 0 0 0 0 0 0 0 0 0 0 0 0 0 28 0.001 
4520 4 0.000995205 0.0411788 -0.0449892 0 0 0 -1.34192e-17 1.30284e-17 -1.07118e-17 0 0 0 0 0 0 0 0 0 0 0 0 0 0 0 0 0 0 0 22 0.001 
4474 4 0.00412334 0.0421301 -0.0439446 0 0 0 -5.56999e-07 1.20091e-14 -1.09463e-14 5.13009e-18 0 0 0 0 0 0 0 0 0 0 0 0 0 0 0 0 0 0 86 0.001 
6339 5 0.0073878 0.0422829 -0.043777 0 0 0 -1.43898e-08 8.5514e-13 -7.79562e-13 1.58596e-19 0 0 0 0 0 0 0 0 0 0 0 0 0 0 0 0 0 0 134 0.001 
15303 3 0.0108822 0.0285562 -0.0433572 0 0 0 -0.136205 0.67536 -23.0933 0 -2.0546e-05 0 0 0 0 0 0 0 0 0 0 0 0 0 0 0 0 0 77 0.001 
1159 7 0.0121016 0.00176462 -0.0418696 0 0 0 0.319368 -1.76528 -0.555853 0 -2.0546e-05 0 0 0 0 0 0 0 0 0 0 0 0 0 0 0 0 0 272 0.001 
6843 10 0.00100787 0.0436464 -0.0422812 0 0 0 -1.08782e-08 -1.33358e-12 1.21572e-12 -8.04769e-20 0 0 0 0 0 0 0 0 0 0 0 0 0 0 0 0 0 0 12 0.001 