ITEM: TIMESTEP
20000000
ITEM: NUMBER OF ATOMS
8915
ITEM: BOX BOUNDS ff ff ff
-0.01 0.45
-0.15 0.15
-0.08 0.1
ITEM: ATOMS id type x y z ix iy iz vx vy vz fx fy fz c_cc_1 c_cc_2 c_cc_3 c_cc_4 c_cc_5 c_cc_6 c_cc_7 c_cc_8 c_cc_9 c_cc_10 c_cc_11 c_cc_12 c_cc_13 c_cc_14 c_cc_15 c_cc_16 f_fppacc radius 
4212 10 0.0160958 -0.00875846 -0.0601884 0 0 0 -1.12005e-06 3.25638e-13 3.51421e-12 -5.53552e-18 2.77556e-17 2.22045e-16 0 0 0 0 0 0 0 0 0 0 0 0 0 0 0 0 229 0.00126 
2045 8 0.0108472 -0.00953977 -0.060116 0 0 0 -1.41565e-08 3.42667e-13 3.69799e-12 8.71279e-20 0 0 0 0 0 0 0 0 0 0 0 0 0 0 0 0 0 0 50 0.00126 
282 1 0.00394147 -0.0102535 -0.0569304 0 0 0 0.620667 -7.14651 2.39589 0 -4.10998e-05 0 0 0 0 0 0 0 0 0 0 0 0 0 0 0 0 0 248 0.00126 
4251 11 0.00773818 -0.00158363 -0.0586147 0 0 0 -0.952982 -2.04389 0.38583 0.000840161 0.00444729 0.0428426 0 0 0 0 0 0 0 0 0 0 0 0 0 0 0 0 303 0.00126 
101 6 0.00239466 -0.0217514 -0.0570164 0 0 0 -1.99859e-07 2.76543e-15 1.00023e-14 -2.1811e-08 0 0 0 0 0 0 0 0 0 0 0 0 0 0 0 0 0 0 0 0.00126 
2135 6 0.00773275 -0.021741 -0.056953 0 0 0 0.0342903 -1.11237e-14 -7.1491e-14 1.10573e-14 -2.22045e-16 0 0 0 0 0 0 0 0 0 0 0 0 0 0 0 0 0 8 0.00126 
6190 4 0.00339143 -0.0170517 -0.0555502 0 0 0 -0.318578 -6.74961 1.90938 0 -4.10998e-05 0 0 0 0 0 0 0 0 0 0 0 0 0 0 0 0 0 165 0.00126 
584 10 0.0149502 -0.0110418 -0.0557995 0 0 0 -0.839261 -0.628003 0.214099 0 -4.10998e-05 0 0 0 0 0 0 0 0 0 0 0 0 0 0 0 0 0 214 0.00126 
3024 1 0.00123403 -0.0607178 -0.0057424 0 0 0 -5.04137e-17 1.19342e-17 -3.86495e-16 0 0 -4.77049e-18 0 0 0 0 0 0 0 0 0 0 0 0 0 0 0 0 0 0.00126 
6354 10 0.0167079 -0.0107399 -0.0537344 0 0 0 1.40144 -2.01675 0.778355 0 -4.10998e-05 0 0 0 0 0 0 0 0 0 0 0 0 0 0 0 0 0 163 0.00126 
4184 6 0.00735662 -0.0574343 -0.00484322 0 0 0 1.31131 -0.0284408 6.6258 0 -4.10998e-05 0 0 0 0 0 0 0 0 0 0 0 0 0 0 0 0 0 212 0.00126 
5266 5 0.00938611 -0.0308178 -0.0525079 0 0 0 -2.37067e-06 1.56055e-12 3.13399e-12 4.35771e-17 -1.11022e-16 -2.22045e-16 0 0 0 0 0 0 0 0 0 0 0 0 0 0 0 0 153 0.00126 
2543 5 0.0158133 -0.0119012 -0.0449184 0 0 0 1.83027 -18.4833 12.3389 0 -4.10998e-05 0 0 0 0 0 0 0 0 0 0 0 0 0 0 0 0 0 294 0.00126 
912 4 0.00681669 -0.00959609 -0.049602 0 0 0 0.711956 -4.26902 1.20033 0 -4.10998e-05 0 0 0 0 0 0 0 0 0 0 0 0 0 0 0 0 0 295 0.00126 
3303 1 0.0180608 -0.0303536 -0.0504154 0 0 0 0.374755 -8.83111 -1.71045 -0.103067 0.10009 0.390967 1 0 0 0 0 0 0 0 0 0 0 0 0 0 0 0 224 0.00126 
1019 6 0.00586519 -0.029377 -0.0451889 0 0 0 -1.09066 -12.3049 7.96524 0 -4.10998e-05 0 0 0 0 0 0 0 0 0 0 0 0 0 0 0 0 0 214 0.00126 
1964 2 0.00868027 -0.027958 -0.0460017 0 0 0 0.123694 -8.55186 6.52541 0 -4.10998e-05 0 0 0 0 0 0 0 0 0 0 0 0 0 0 0 0 0 302 0.00126 
8474 9 0.0153894 -0.0167114 -0.0487346 0 0 0 2.27104 -5.0172 -0.338653 0 -4.10998e-05 0 0 0 0 0 0 0 0 0 0 0 0 0 0 0 0 0 98 0.00126 
6435 6 0.00314731 -0.040982 -0.0451644 0 0 0 0.0524982 4.71387e-12 6.57476e-12 -1.26757e-15 2.22045e-16 0 0 0 0 0 0 0 0 0 0 0 0 0 0 0 0 0 22 0.00126 
4973 2 0.0112085 -0.0396249 -0.04619 0 0 0 -2.81321e-07 8.30717e-13 1.10005e-12 -5.5858e-18 0 2.22045e-16 0 0 0 0 0 0 0 0 0 0 0 0 0 0 0 0 117 0.00126 
5601 1 0.00724968 -0.0411204 -0.0405794 0 0 0 -0.306324 -15.0901 7.55004 0 -4.10998e-05 0 0 0 0 0 0 0 0 0 0 0 0 0 0 0 0 0 221 0.00126 
9941 6 0.0171698 -0.0543857 0.00514037 0 0 0 2.94564 -2.09691 11.1481 0 -4.10998e-05 0 0 0 0 0 0 0 0 0 0 0 0 0 0 0 0 0 0 0.00126 
8786 4 0.00557704 -0.0111441 -0.0462108 0 0 0 0.653976 -6.21128 -3.5692 0 -4.10998e-05 0 0 0 0 0 0 0 0 0 0 0 0 0 0 0 0 0 52 0.00126 
9570 5 0.0134328 -0.0323189 -0.0462377 0 0 0 -10.619 -32.1035 -11.622 0 -4.10998e-05 0 0 0 0 0 0 0 0 0 0 0 0 0 0 0 0 0 1 0.00126 
7666 3 0.00276223 -0.00122144 -0.0345525 0 0 0 0.138765 -2.88837 -0.824443 0 -4.10998e-05 0 0 0 0 0 0 0 0 0 0 0 0 0 0 0 0 0 95 0.00126 
1402 12 0.00857476 -0.0584783 -0.00139172 0 0 0 0.462011 0.0147324 8.0629 0 -4.10998e-05 0 0 0 0 0 0 0 0 0 0 0 0 0 0 0 0 0 345 0.00126 
2081 2 0.018589 -0.0483206 -0.0370953 0 0 0 -0.0496104 -3.6469e-12 -4.9547e-12 -5.68686e-17 0 0 0 0 0 0 0 0 0 0 0 0 0 0 0 0 0 0 253 0.00126 
3839 5 0.0146966 -0.0493945 -0.0356052 0 0 0 -7.19226e-06 1.97899e-05 -7.06371e-06 -7.54922e-07 -6.67282e-06 -5.16355e-06 0 0 0 0 0 0 0 0 0 0 0 0 0 0 0 0 14 0.00126 
9932 5 0.0126279 -0.0485287 -0.0284011 0 0 0 -4.43714 -3.17054 14.6445 0 -4.10998e-05 0 0 0 0 0 0 0 0 0 0 0 0 0 0 0 0 0 0 0.00126 
304 2 0.0105679 -0.0555306 -0.0134519 0 0 0 -6.15171 -5.68312 28.4269 0 -4.10998e-05 0 0 0 0 0 0 0 0 0 0 0 0 0 0 0 0 0 208 0.00126 
3254 2 0.0183028 -0.0368464 -0.030319 0 0 0 0.5732 0.250461 0.741024 0 -4.10998e-05 0 0 0 0 0 0 0 0 0 0 0 0 0 0 0 0 0 225 0.00126 
7598 3 0.00996304 -0.0523302 -0.026433 0 0 0 0.249708 -3.20085 5.73544 0 -4.10998e-05 0 0 0 0 0 0 0 0 0 0 0 0 0 0 0 0 0 168 0.00126 
3897 1 0.0012303 -0.0545381 -0.0272974 0 0 0 5.92042e-17 -4.33996e-16 -8.96172e-19 0 0 0 0 0 0 0 0 0 0 0 0 0 0 0 0 0 0 0 10 0.00126 
2817 7 0.0141974 -0.0565742 -0.0145165 0 0 0 0.520242 -4.47612 20.0551 0 -4.10998e-05 0 0 0 0 0 0 0 0 0 0 0 0 0 0 0 0 0 272 0.00126 
8182 3 0.0169505 -0.0549243 -0.0125376 0 0 0 2.60954 -4.76265 6.40186 0 -4.10998e-05 0 0 0 0 0 0 0 0 0 0 0 0 0 0 0 0 0 72 0.00126 
5269 5 0.00496997 -0.0566861 -0.00701835 0 0 0 0.30449 -2.18453 2.89632 0 -4.10998e-05 0 0 0 0 0 0 0 0 0 0 0 0 0 0 0 0 0 177 0.00126 
3398 3 0.0105691 -0.0584186 -0.00312244 0 0 0 1.05693 -0.28032 7.68188 0 -4.10998e-05 0 0 0 0 0 0 0 0 0 0 0 0 0 0 0 0 0 250 0.00126 
4656 6 0.0031324 -0.000149539 -0.0535927 0 0 0 -1.76858 -9.09798 1.55639 0 -4.10998e-05 0 0 0 0 0 0 0 0 0 0 0 0 0 0 0 0 0 174 0.00126 
7300 6 0.0023439 -0.0543707 0.0216048 0 0 0 0.10303 2.96868 9.47774 0.00663322 0.0644486 -0.025318 0 0 0 0 0 0 0 0 0 0 0 0 0 0 0 0 145 0.00126 
3003 11 0.00685864 -0.0500592 0.0254494 0 0 0 -1.58527 2.97274 6.36724 0 -4.10998e-05 0 0 0 0 0 0 0 0 0 0 0 0 0 0 0 0 0 330 0.00126 
4931 3 0.0083069 -0.0546601 0.0270451 0 0 0 -0.037836 -1.84845e-12 6.49383e-13 2.79299e-15 -2.22045e-16 -2.22045e-16 0 0 0 0 0 0 0 0 0 0 0 0 0 0 0 0 178 0.00126 
7320 3 0.0174236 -0.0521651 0.0180581 0 0 0 0.0135345 1.55904 21.2967 0 -4.10998e-05 0 0 0 0 0 0 0 0 0 0 0 0 0 0 0 0 0 139 0.00126 
158 8 0.0160583 -0.00238819 0.0607787 0 0 0 6.68147e-07 -5.14223e-12 5.71185e-12 7.12286e-13 -5.08399e-13 -4.40314e-13 0 0 0 0 0 0 0 0 0 0 0 0 0 0 0 0 3 0.00126 
496 5 0.0166826 -0.013614 0.059277 0 0 0 -3.13525e-06 5.79974e-13 -2.03841e-12 -2.16749e-19 5.55112e-17 -2.22045e-16 0 0 0 0 0 0 0 0 0 0 0 0 0 0 0 0 26 0.00126 
522 4 0.0136615 -0.0131991 0.0593951 0 0 0 1.71404e-07 4.33718e-13 -1.52436e-12 1.39322e-18 5.55112e-17 -2.22045e-16 0 0 0 0 0 0 0 0 0 0 0 0 0 0 0 0 0 0.00126 
9588 13 0.0085855 -0.0374767 0.0343907 0 0 0 2.97924 5.42357 2.5689 0 -4.10998e-05 0 0 0 0 0 0 0 0 0 0 0 0 0 0 0 0 0 17 0.00126 
8623 1 0.0033646 -0.0322894 0.0366085 0 0 0 0.544293 3.59046 -0.314961 0 -4.10998e-05 0 0 0 0 0 0 0 0 0 0 0 0 0 0 0 0 0 99 0.00126 
9692 5 0.01665 -0.0468393 0.0387788 0 0 0 -3.2849e-07 -3.96162e-12 3.61149e-12 -6.51749e-19 0 0 0 0 0 0 0 0 0 0 0 0 0 0 0 0 0 0 1 0.00126 
157 4 0.016628 -0.0382981 0.047192 0 0 0 -1.00801e-06 1.30989e-12 -1.73457e-12 6.42065e-19 0 0 0 0 0 0 0 0 0 0 0 0 0 0 0 0 0 0 139 0.00126 
9200 6 0.00510682 -0.0300005 0.0503345 0 0 0 2.04811 7.15426 6.09257 0 -4.10998e-05 0 0 0 0 0 0 0 0 0 0 0 0 0 0 0 0 0 25 0.00126 
9275 3 0.0100179 -0.0189037 0.0527761 0 0 0 2.57534 6.57659 1.26488 0 -4.10998e-05 0 0 0 0 0 0 0 0 0 0 0 0 0 0 0 0 0 0 0.00126 
8959 10 0.00281725 -0.0149447 0.0519006 0 0 0 0.543906 11.2782 0.922669 0 -4.10998e-05 0 0 0 0 0 0 0 0 0 0 0 0 0 0 0 0 0 37 0.00126 
8371 2 0.00463307 -0.0177696 0.0538344 0 0 0 0.202966 7.69601 1.33125 0 -4.10998e-05 0 0 0 0 0 0 0 0 0 0 0 0 0 0 0 0 0 65 0.00126 
8161 3 0.00843653 -0.0180607 0.0554771 0 0 0 1.94597 5.79294 1.16094 0 -4.10998e-05 0 0 0 0 0 0 0 0 0 0 0 0 0 0 0 0 0 92 0.00126 
6083 4 0.0149121 -0.0240289 0.0558883 0 0 0 1.75409e-06 4.41093e-13 -8.8583e-13 2.16753e-17 1.11022e-16 -2.22045e-16 0 0 0 0 0 0 0 0 0 0 0 0 0 0 0 0 33 0.00126 
1931 6 0.00990761 0.0133294 -0.059358 0 0 0 -2.24198e-06 -3.85597e-13 1.35523e-12 9.02639e-19 0 0 0 0 0 0 0 0 0 0 0 0 0 0 0 0 0 0 110 0.00126 
8000 6 0.0127576 0.0131551 -0.0594076 0 0 0 -2.3266e-06 3.71612e-08 1.16087e-08 -2.60764e-14 2.04836e-14 -1.07248e-13 0 0 0 0 0 1 0 0 0 0 0 0 0 0 0 0 78 0.00126 
6944 1 0.0152123 0.0134041 -0.0593358 0 0 0 1.81841e-06 -1.45547e-07 -3.20369e-08 3.14818e-14 5.01266e-14 -1.52989e-13 1 0 0 0 0 1 0 0 0 0 0 0 0 0 0 0 186 0.00126 
654 2 0.0175635 0.0138718 -0.0592046 0 0 0 -2.17978e-06 1.08383e-07 2.0435e-08 2.93376e-14 -1.69864e-14 5.41789e-14 1 0 0 0 0 0 0 0 0 0 0 0 0 0 0 0 153 0.00126 
1780 4 0.0149468 0.0194038 -0.0576297 0 0 0 -5.36416e-06 2.77347e-13 -9.74774e-13 -4.46962e-17 0 0 0 0 0 0 0 0 0 0 0 0 0 0 0 0 0 0 0 0.00126 
6690 8 0.00489503 0.000752305 -0.0559395 0 0 0 5.86921 -11.6255 -1.8863 0 -4.10998e-05 0 0 0 0 0 0 0 0 0 0 0 0 0 0 0 0 0 166 0.00126 
260 1 0.00212406 0.0222258 -0.056782 0 0 0 -0.00158991 -0.000346877 -0.000188762 0.000354596 9.40029e-05 3.8252e-05 1 0 0 0 0 0 0 0 0 0 0 0 0 0 0 0 222 0.00126 
1363 2 0.00456358 0.0226121 -0.0566167 0 0 0 0.00168015 5.43623e-06 8.86512e-05 -0.000492208 9.66425e-06 -2.41007e-05 1 1 0 0 0 0 0 0 0 0 0 0 0 0 0 0 478 0.00126 
2616 8 0.00693842 0.0221181 -0.0568404 0 0 0 0.000183022 0.000334758 6.89579e-05 -7.39211e-05 -0.000106442 -4.5978e-06 0 1 0 0 0 0 0 0 0 0 0 0 0 0 0 0 258 0.00126 
7542 2 0.0170332 0.0222185 -0.0567862 0 0 0 0.0379095 7.10145e-13 -1.24216e-12 5.79548e-15 -2.22045e-16 -2.22045e-16 0 0 0 0 0 0 0 0 0 0 0 0 0 0 0 0 2 0.00126 
310 6 0.0116212 0.0238903 -0.0559574 0 0 0 3.97344e-06 5.05004e-13 -1.01419e-12 2.29691e-18 -1.11022e-16 2.22045e-16 0 0 0 0 0 0 0 0 0 0 0 0 0 0 0 0 101 0.00126 
9318 2 0.0149118 0.023997 -0.0559042 0 0 0 3.42197e-07 1.69519e-12 -3.40441e-12 -1.32834e-19 0 0 0 0 0 0 0 0 0 0 0 0 0 0 0 0 0 0 1 0.00126 
6933 2 0.00295705 0.0178955 -0.0554381 0 0 0 -0.0166915 -1.13616 0.0818787 0 -4.10998e-05 0 0 0 0 0 0 0 0 0 0 0 0 0 0 0 0 0 107 0.00126 
543 2 0.018316 0.0644699 -0.00685006 0 0 0 -13.7432 2.5283 13.063 0 -4.10998e-05 0 0 0 0 0 0 0 0 0 0 0 0 0 0 0 0 0 318 0.00126 
9733 5 0.00435772 0.00802863 -0.0531632 0 0 0 0.105901 -1.64018 -1.10781 0 -4.10998e-05 0 0 0 0 0 0 0 0 0 0 0 0 0 0 0 0 0 1 0.00126 
8420 12 0.00703918 0.0145032 -0.0527051 0 0 0 -0.110956 -3.13328 0.274451 0 -4.10998e-05 0 0 0 0 0 0 0 0 0 0 0 0 0 0 0 0 0 62 0.00126 
719 3 0.0144492 0.0280241 -0.0538989 0 0 0 -1.5601e-06 6.82815e-08 3.39937e-08 -3.46641e-15 3.09752e-14 -5.30687e-14 0 0 1 0 0 0 0 0 0 0 0 0 0 0 0 0 1 0.00126 
7958 4 0.0160759 0.0297259 -0.0530515 0 0 0 1.5601e-06 -6.82813e-08 -3.39937e-08 5.5689e-15 -2.12053e-14 5.17364e-14 0 0 1 0 0 0 0 0 0 0 0 0 0 0 0 0 14 0.00126 
1120 2 0.00674939 0.108461 0.00939918 0 0 0 0.0031415 -0.0393164 0.145208 0 -4.10998e-05 0 0 0 0 0 0 0 0 0 0 0 0 0 0 0 0 0 304 0.00126 
6127 1 0.00255473 0.0259319 -0.0520603 0 0 0 -0.240545 -1.31073 -0.435642 0 -4.10998e-05 0 0 0 0 0 0 0 0 0 0 0 0 0 0 0 0 0 138 0.00126 
1482 11 0.00209474 0.0323537 -0.0517507 0 0 0 1.92119e-09 5.64646e-15 -7.47618e-15 3.02746e-11 0 0 0 0 0 0 0 0 0 0 0 0 0 0 0 0 0 0 13 0.00126 
3410 1 0.00643166 0.032247 -0.0517596 0 0 0 0.0318301 -2.55013e-12 3.11917e-12 4.66198e-17 0 0 0 0 0 0 0 0 0 0 0 0 0 0 0 0 0 0 44 0.00126 
4209 13 0.00728602 0.020946 -0.0529521 0 0 0 -4.10226 -12.061 -7.43452 0 -4.10998e-05 0 0 0 0 0 0 0 0 0 0 0 0 0 0 0 0 0 270 0.00126 
2227 6 0.00566137 0.0265202 -0.0519251 0 0 0 3.22479 -3.65555 1.40364 0 -4.10998e-05 0 0 0 0 0 0 0 0 0 0 0 0 0 0 0 0 0 309 0.00126 
7108 4 0.00742439 0.0303874 -0.0489831 0 0 0 0.243714 -0.75218 -0.361775 0 -4.10998e-05 0 0 0 0 0 0 0 0 0 0 0 0 0 0 0 0 0 171 0.00126 
6997 3 0.00555259 0.00983456 -0.0500375 0 0 0 0.916321 -0.723722 -5.07788 0 -4.10998e-05 0 0 0 0 0 0 0 0 0 0 0 0 0 0 0 0 0 130 0.00126 
4298 10 0.00213664 0.0179877 -0.0471718 0 0 0 -1.29535 -3.34304 0.872101 0.648764 0.0260707 0.0312477 0 0 0 0 0 0 0 0 0 0 0 0 0 0 0 0 237 0.00126 
6854 1 0.00892561 0.0189752 -0.0512149 0 0 0 0.113848 -10.7181 -8.03726 0 -4.10998e-05 0 0 0 0 0 0 0 0 0 0 0 0 0 0 0 0 0 102 0.00126 
2826 2 0.00790943 0.0234496 -0.0491225 0 0 0 3.82095 -6.69476 -3.17328 0 -4.10998e-05 0 0 0 0 0 0 0 0 0 0 0 0 0 0 0 0 0 220 0.00126 
6220 6 0.00517248 0.0739137 0.00967127 0 0 0 -0.0595706 0.162157 -0.84009 0 -4.10998e-05 0 0 0 0 0 0 0 0 0 0 0 0 0 0 0 0 0 140 0.00126 
907 8 0.0150861 0.0380544 -0.047376 0 0 0 -3.65156e-06 3.66702e-12 -4.85593e-12 -4.16535e-18 0 0 0 0 0 0 0 0 0 0 0 0 0 0 0 0 0 0 0 0.00126 
7630 8 0.0056066 0.0168483 -0.0486863 0 0 0 -0.29321 -10.6897 -5.81134 0 -4.10998e-05 0 0 0 0 0 0 0 0 0 0 0 0 0 0 0 0 0 135 0.00126 
776 2 0.00392099 0.0338222 -0.0464434 0 0 0 0.39876 -0.063251 -1.3998 0 -4.10998e-05 0 0 0 0 0 0 0 0 0 0 0 0 0 0 0 0 0 253 0.00126 
3124 5 0.00125114 0.041181 -0.0449853 0 0 0 -1.31305e-17 1.32095e-16 2.473e-16 0 0 0 0 0 0 0 0 0 0 0 0 0 0 0 0 0 0 0 0 0.00126 
3570 8 0.0152318 0.000724381 -0.0450388 0 0 0 0.550685 -2.44192 -2.53645 0 -4.10998e-05 0 0 0 0 0 0 0 0 0 0 0 0 0 0 0 0 0 299 0.00126 
9403 5 0.00430476 0.021835 -0.0450069 0 0 0 0.207122 -0.908168 -0.943623 0 -4.10998e-05 0 0 0 0 0 0 0 0 0 0 0 0 0 0 0 0 0 5 0.00126 
6547 4 0.00525842 0.0415966 -0.0445458 0 0 0 1.32994e-23 -2.42247e-15 2.68323e-15 -4.86658e-24 0 0 0 0 0 0 0 0 0 0 0 0 0 0 0 0 0 0 155 0.00126 
468 2 0.00853224 0.042285 -0.0437747 0 0 0 -9.06585e-07 3.99445e-15 -3.66484e-15 -4.4671e-17 0 0 0 0 0 0 0 0 0 0 0 0 0 0 0 0 0 0 223 0.00126 
1340 1 0.0128946 0.0424522 -0.0435912 0 0 0 2.26476e-06 -1.77549e-14 -8.18794e-15 1.07862e-14 2.66454e-15 2.66454e-15 0 0 0 0 0 0 0 0 0 0 0 0 0 0 0 0 273 0.00126 
5516 6 0.0135531 0.00353526 -0.0431158 0 0 0 0.0617668 -3.1504 -2.58149 0 -4.10998e-05 0 0 0 0 0 0 0 0 0 0 0 0 0 0 0 0 0 248 0.00126 
9939 6 0.00346117 0.0287219 -0.0399338 0 0 0 0.392119 -1.32707 -3.242 0 -4.10998e-05 0 0 0 0 0 0 0 0 0 0 0 0 0 0 0 0 0 0 0.00126 
9863 3 0.00379713 0.0337961 -0.0387635 0 0 0 0.401415 0.887627 -1.29962 0 -4.10998e-05 0 0 0 0 0 0 0 0 0 0 0 0 0 0 0 0 0 1 0.00126 
9281 5 0.0174525 0.0288708 -0.0395219 0 0 0 -0.640945 -5.92581 -7.00566 0 -4.10998e-05 0 0 0 0 0 0 0 0 0 0 0 0 0 0 0 0 0 39 0.00126 
1778 6 0.0137436 0.0403298 -0.0381559 0 0 0 0.518292 1.61181 -1.91871 0 -4.10998e-05 0 0 0 0 0 0 0 0 0 0 0 0 0 0 0 0 0 276 0.00126 
7524 4 0.0173215 0.0490358 -0.0363088 0 0 0 0.00110659 3.97346e-13 -2.42479e-13 2.49465e-05 -4.77396e-15 2.83107e-15 0 0 0 0 0 0 0 0 0 0 0 0 0 0 0 0 1 0.00126 
5231 1 0.0172716 0.0425594 -0.0352969 0 0 0 -0.854372 -1.11741 -0.404297 0 -4.10998e-05 0 0 0 0 0 0 0 0 0 0 0 0 0 0 0 0 0 225 0.00126 
2999 1 0.015235 0.0448945 -0.0363271 0 0 0 0.701572 -2.64814 -3.53491 0 -4.10998e-05 0 0 0 0 0 0 0 0 0 0 0 0 0 0 0 0 0 289 0.00126 
1457 7 0.0130443 0.0512726 -0.0355014 0 0 0 -6.03391e-06 -5.52975e-06 -1.18058e-07 4.11472e-06 2.44181e-06 2.7394e-08 0 0 0 0 0 0 1 0 0 0 0 0 0 0 0 0 342 0.00126 
439 3 0.0151019 0.0514607 -0.0355047 0 0 0 -1.17882e-05 4.18084e-06 -9.65535e-08 6.03814e-06 -3.41666e-06 2.73035e-08 0 0 1 0 0 0 1 0 0 0 0 0 0 0 0 0 675 0.00126 
530 1 0.0105847 0.052571 -0.0355 0 0 0 -7.26317e-06 5.66674e-06 -3.01762e-09 4.73331e-06 -2.90588e-06 2.48439e-09 1 0 0 0 0 0 0 0 0 0 0 0 0 0 0 0 173 0.00126 
5770 4 0.0120601 0.0545251 -0.0355 0 0 0 -7.64102e-07 -1.93339e-05 1.17729e-08 -1.07222e-07 1.13156e-05 -4.61102e-09 1 0 0 1 0 0 0 0 0 0 0 0 0 0 0 0 339 0.00126 
1326 7 0.0142005 0.0532947 -0.0354939 0 0 0 2.58508e-05 1.50157e-05 2.05859e-07 -1.47792e-05 -7.43491e-06 -5.25707e-08 0 0 1 1 0 0 0 0 0 0 0 0 0 0 0 0 501 0.00126 
1865 5 0.00736879 0.0567637 -0.0355 0 0 0 3.87519e-41 1.07736e-19 -5.06485e-12 2.25005e-41 0 -1.77636e-15 0 0 0 0 0 0 0 0 0 0 0 0 0 0 0 0 133 0.00126 
1383 6 0.0154381 0.0563849 -0.0355 0 0 0 1.77247e-30 1.4907e-19 -5.90583e-12 -2.63315e-33 0 -1.77636e-15 0 0 0 0 0 0 0 0 0 0 0 0 0 0 0 0 1 0.00126 
3798 7 0.0102444 0.0577881 -0.0354958 0 0 0 8.72933e-06 2.85374e-06 6.94575e-09 1.0538e-06 3.57434e-07 1.96671e-09 0 0 0 0 0 0 1 0 0 0 0 0 0 0 0 0 249 0.00126 
9550 6 0.0135497 0.0582579 -0.035501 0 0 0 0.00015995 -3.19292e-05 -5.9916e-08 3.35972e-05 -7.41931e-06 1.88551e-08 0 0 0 0 0 1 0 0 0 0 0 0 0 0 0 0 17 0.00126 
1085 6 0.00947654 0.0597191 -0.0355062 0 0 0 -1.40059e-05 -9.2425e-06 -1.2441e-08 -1.71135e-06 -1.12708e-06 -3.63377e-09 0 0 0 0 0 1 1 0 0 0 0 0 0 0 0 0 562 0.00126 
3956 1 0.0139054 0.0606018 -0.0354994 0 0 0 -0.000271375 -3.648e-05 3.15703e-06 -6.85716e-05 -1.58444e-05 -2.19684e-06 1 0 0 0 0 1 0 0 0 0 0 0 0 0 0 0 92 0.00126 
307 4 0.0169004 0.0591006 -0.0355 0 0 0 -9.13564e-96 1.34647e-19 3.37001e-12 -2.58836e-95 0 1.77636e-15 0 0 0 0 0 0 0 0 0 0 0 0 0 0 0 0 3 0.00126 
547 3 0.00786208 0.0612481 -0.035498 0 0 0 5.27645e-06 6.38868e-06 5.49606e-09 6.57529e-07 7.69637e-07 1.66646e-09 0 0 0 0 0 1 0 0 0 0 0 0 0 0 0 0 325 0.00126 
3490 3 0.0127323 0.0626573 -0.0354997 0 0 0 0.000121299 9.63417e-05 9.96341e-06 3.40203e-05 1.74757e-05 -7.70312e-06 1 0 0 0 0 0 0 0 0 0 0 0 0 0 0 0 215 0.00126 
505 5 0.00807608 0.0641072 -0.0355 0 0 0 2.71679e-07 1.73418e-07 -4.03627e-08 1.99501e-08 -1.17861e-07 -1.90583e-07 0 0 0 0 0 0 0 0 0 0 0 0 0 0 0 0 2 0.00126 
2849 5 0.0115624 0.0650741 -0.0355 0 0 0 -5.99556e-17 -1.22056e-16 5.90566e-12 2.72771e-18 -1.77335e-17 -1.77636e-15 0 0 0 0 0 0 0 0 0 0 0 0 0 0 0 0 4 0.00126 
3298 1 0.0177891 0.0643659 -0.0354994 0 0 0 -2.27367e-09 4.31542e-09 6.72547e-12 3.79566e-10 -8.08316e-10 -2.2915e-13 2 0 0 0 0 0 0 0 0 0 0 0 0 0 0 0 235 0.00126 
8867 5 0.0157528 0.0656072 -0.0355006 0 0 0 -2.43134e-09 -3.45484e-09 -7.14142e-12 4.95424e-10 6.73028e-10 -2.6823e-13 1 0 0 0 0 0 0 0 0 0 0 0 0 0 0 0 48 0.00126 
1661 11 0.00646614 0.0666894 -0.0355 0 0 0 1.38144e-06 7.25299e-07 -1.40593e-06 -2.00621e-06 -5.86863e-07 -3.55071e-07 0 0 0 0 0 0 0 0 0 0 0 0 0 0 0 0 11 0.00126 
6357 8 0.0183066 0.0667596 -0.0355 0 0 0 4.70501e-09 -8.60575e-10 4.40446e-14 -8.7499e-10 1.35288e-10 -2.25597e-13 1 0 0 0 0 0 0 0 0 0 0 0 0 0 0 0 153 0.00126 
5960 4 0.0111265 0.0721041 -0.0355 0 0 0 6.42679e-07 -1.27225e-06 -4.44067e-07 2.29353e-08 1.74259e-07 2.9678e-07 0 0 0 0 0 0 0 0 0 0 0 0 0 0 0 0 13 0.00126 
980 2 0.00453419 0.0734062 -0.0355 0 0 0 6.63568e-98 -1.74956e-19 6.74664e-12 3.44371e-98 0 -1.77636e-15 0 0 0 0 0 0 0 0 0 0 0 0 0 0 0 0 12 0.00126 
2007 5 0.00866912 0.0739895 -0.0355 0 0 0 3.76286e-09 6.5732e-09 3.9967e-09 -7.34382e-10 -3.036e-09 -2.49406e-10 0 0 0 0 0 0 0 0 0 0 0 0 0 0 0 0 8 0.00126 
1245 3 0.00465994 0.0759725 -0.0355 0 0 0 -1.57725e-37 1.22221e-19 3.36996e-12 4.30337e-38 0 1.77636e-15 0 0 0 0 0 0 0 0 0 0 0 0 0 0 0 0 20 0.00126 
499 7 0.0185592 0.0810007 -0.0355 0 0 0 6.90187e-10 4.97038e-10 1.69413e-10 3.08475e-11 3.83133e-11 1.23014e-10 0 0 0 0 0 0 0 0 0 0 0 0 0 0 0 0 20 0.00126 
4090 7 0.00919104 0.108671 0.00881048 0 0 0 0.00745715 -0.00913621 0.168078 0 -4.10998e-05 0 0 0 0 0 0 0 0 0 0 0 0 0 0 0 0 0 232 0.00126 
1370 8 0.00663243 0.0173825 -0.033443 0 0 0 0.0681552 -1.7624 0.085916 0 -4.10998e-05 0 0 0 0 0 0 0 0 0 0 0 0 0 0 0 0 0 322 0.00126 
5182 3 0.0108391 0.0176577 -0.0335568 0 0 0 0.325099 -1.88084 0.0199853 0 -4.10998e-05 0 0 0 0 0 0 0 0 0 0 0 0 0 0 0 0 0 4 0.00126 
420 3 0.00837479 0.0398461 -0.033233 0 0 0 -0.550819 -1.62659 -1.11702 0 -4.10998e-05 0 0 0 0 0 0 0 0 0 0 0 0 0 0 0 0 0 304 0.00126 
1101 3 0.0106561 0.0437206 -0.0341315 0 0 0 0.240607 -1.71661 -1.33685 0 -4.10998e-05 0 0 0 0 0 0 0 0 0 0 0 0 0 0 0 0 0 255 0.00126 
7521 1 0.00575093 0.0477751 -0.0334257 0 0 0 0.0636665 -0.825763 0.0124287 0 -4.10998e-05 0 0 0 0 0 0 0 0 0 0 0 0 0 0 0 0 0 166 0.00126 
6812 4 0.00848306 0.0470231 -0.0341185 0 0 0 -3.52175 -1.81173 -0.509303 0 -4.10998e-05 0 0 0 0 0 0 0 0 0 0 0 0 0 0 0 0 0 144 0.00126 
2524 2 0.00437446 0.050721 -0.0337067 0 0 0 0.0709916 -0.9174 -0.138014 0 -4.10998e-05 0 0 0 0 0 0 0 0 0 0 0 0 0 0 0 0 0 278 0.00126 
2491 3 0.0037308 0.054345 -0.0337372 0 0 0 -0.166203 -0.313223 -0.0151326 0 -4.10998e-05 0 0 0 0 0 0 0 0 0 0 0 0 0 0 0 0 0 246 0.00126 
5674 12 0.0158292 0.0540527 -0.0334719 0 0 0 0.220693 -0.0509879 0.0238644 0 -4.10998e-05 0 0 0 0 0 0 0 0 0 0 0 0 0 0 0 0 0 203 0.00126 
9831 5 0.00625754 0.0554607 -0.0330664 0 0 0 0.0287327 -1.01713 -0.373595 0 -4.10998e-05 0 0 0 0 0 0 0 0 0 0 0 0 0 0 0 0 0 0 0.00126 
7112 2 0.00924835 0.055379 -0.0328931 0 0 0 0.154082 -0.92009 -0.106894 0 -4.10998e-05 0 0 0 0 0 0 0 0 0 0 0 0 0 0 0 0 0 58 0.00126 
7366 1 0.00224181 0.0564824 -0.033355 0 0 0 0.0369156 -0.624532 0.0813385 0.0285084 -0.000121988 -0.00311971 0 0 0 0 0 0 0 0 0 0 0 0 0 0 0 0 117 0.00126 
3247 8 0.00276525 0.0599997 -0.0333745 0 0 0 -0.0209979 -0.292932 0.0556953 0 -4.10998e-05 0 0 0 0 0 0 0 0 0 0 0 0 0 0 0 0 0 267 0.00126 
6840 8 0.0120013 0.060585 -0.0336142 0 0 0 0.49801 -1.98645 -0.273696 0 -4.10998e-05 0 0 0 0 0 0 0 0 0 0 0 0 0 0 0 0 0 169 0.00126 
5845 9 0.00245169 0.0627739 -0.033564 0 0 0 -0.0317842 -0.519762 0.221345 0 -4.10998e-05 0 0 0 0 0 0 0 0 0 0 0 0 0 0 0 0 0 173 0.00126 
7611 1 0.00567731 0.063263 -0.0337236 0 0 0 -0.0598038 -0.698313 -0.240549 0 -4.10998e-05 0 0 0 0 0 0 0 0 0 0 0 0 0 0 0 0 0 160 0.00126 
809 6 0.013319 0.0638885 -0.0333718 0 0 0 0.0117429 -0.325175 0.207455 0.000508983 5.31273e-05 -0.000560367 0 0 0 0 0 1 0 0 0 0 0 0 0 0 0 0 288 0.00126 
9272 6 0.0159312 0.0634106 -0.0328877 0 0 0 0.142502 -0.965638 -0.38169 -0.00212388 -0.00311137 0.00267505 0 0 0 0 0 1 0 0 0 0 0 0 0 0 0 0 31 0.00126 
1896 5 0.0079911 0.0658808 -0.0336413 0 0 0 0.0315955 0.103455 0.0802391 0 -4.10998e-05 0 0 0 0 0 0 0 0 0 0 0 0 0 0 0 0 0 293 0.00126 
8356 11 0.0119 0.0662609 -0.0332141 0 0 0 -0.0660661 -0.363884 0.206455 0 -4.10998e-05 0 0 0 0 0 0 0 0 0 0 0 0 0 0 0 0 0 63 0.00126 
4999 2 0.0145953 0.0660116 -0.0328886 0 0 0 0.071174 -0.517933 0.0824794 0.00084571 -0.000131994 -0.000626782 0 1 0 0 0 0 0 0 0 0 0 0 0 0 0 0 168 0.00126 
4167 1 0.0170435 0.0656117 -0.0333249 0 0 0 0.0631256 -0.694207 -0.382621 0.00107302 0.00354874 -0.00104372 1 1 0 0 0 1 0 0 0 0 0 0 0 0 0 0 219 0.00126 
5993 4 0.00356482 0.0690339 -0.0333636 0 0 0 0.0911793 -0.0856804 0.0899755 0 -4.10998e-05 0 0 0 0 0 0 0 0 0 0 0 0 0 0 0 0 0 205 0.00126 
9816 1 0.00611389 0.0687536 -0.0336895 0 0 0 -0.0543051 0.0408762 0.0288605 0 -4.10998e-05 0 0 0 0 0 0 0 0 0 0 0 0 0 0 0 0 0 4 0.00126 
466 1 0.0110267 0.0690094 -0.0336289 0 0 0 0.377989 0.00109936 -0.145159 0 -4.10998e-05 0 0 0 0 0 0 0 0 0 0 0 0 0 0 0 0 0 284 0.00126 
9735 7 0.0136292 0.0682149 -0.0337269 0 0 0 0.30734 -0.423001 0.0181273 0 -4.10998e-05 0 0 0 0 0 0 0 0 0 0 0 0 0 0 0 0 0 2 0.00126 
1064 4 0.0163657 0.0688633 -0.0336967 0 0 0 0.0822765 -0.323457 0.0641682 0 -4.10998e-05 0 0 0 0 0 0 0 0 0 0 0 0 0 0 0 0 0 289 0.00126 
3987 2 0.00797568 0.0712911 -0.0335518 0 0 0 0.0793712 0.263828 0.185929 0 -4.10998e-05 0 0 0 0 0 0 0 0 0 0 0 0 0 0 0 0 0 252 0.00126 
2854 10 0.0147001 0.0710082 -0.0336725 0 0 0 0.26217 -0.172597 0.06229 0 -4.10998e-05 0 0 0 0 0 0 0 0 0 0 0 0 0 0 0 0 0 321 0.00126 
2312 12 0.0187338 0.0695844 -0.0332131 0 0 0 0.103419 -0.391093 0.09066 0 -4.10998e-05 0 0 0 0 0 0 0 0 0 0 0 0 0 0 0 0 0 307 0.00126 
6365 2 0.00229796 0.0712563 -0.0337299 0 0 0 0.0442669 -0.104809 0.0532716 0 -4.10998e-05 0 0 0 0 0 0 0 0 0 0 0 0 0 0 0 0 0 143 0.00126 
5977 5 0.00539324 0.0712361 -0.0333603 0 0 0 -0.0471309 -0.435256 0.209928 0 -4.10998e-05 0 0 0 0 0 0 0 0 0 0 0 0 0 0 0 0 0 210 0.00126 
1418 1 0.0175898 0.072504 -0.033726 0 0 0 0.793383 0.175358 0.0125167 0 -4.10998e-05 0 0 0 0 0 0 0 0 0 0 0 0 0 0 0 0 0 274 0.00126 
9099 5 0.00699141 0.0735359 -0.0327915 0 0 0 -0.141612 0.153665 0.124256 -2.3004e-05 -5.50137e-06 -1.18188e-05 0 0 0 0 1 0 0 0 0 0 0 0 0 0 0 0 69 0.00126 
6010 6 0.00992202 0.0730113 -0.0334349 0 0 0 0.016025 -0.0627157 0.215063 0 -4.10998e-05 0 0 0 0 0 0 0 0 0 0 0 0 0 0 0 0 0 203 0.00126 
9880 2 0.0141083 0.0734528 -0.0335017 0 0 0 0.236147 -0.122893 -0.173016 0.0220787 -0.00112218 -0.0228211 0 0 0 0 0 0 0 0 0 0 0 0 0 0 0 0 0 0.00126 
2027 3 0.00225922 0.0746901 -0.0337327 0 0 0 0.0343744 -0.0685982 -0.0592721 -0.0007124 -0.000228932 -0.000125849 0 0 1 0 0 0 0 0 0 0 0 0 0 0 0 0 293 0.00126 
3025 4 0.0067628 0.0758535 -0.0337425 0 0 0 -0.0747893 0.229217 0.0647322 -0.00349142 -0.00175302 -0.000142667 0 0 0 1 1 0 0 0 0 0 0 0 0 0 0 0 270 0.00126 
9731 2 0.0123566 0.075253 -0.0337585 0 0 0 -0.00476397 -0.0864588 -0.370859 0.0132967 0.0216222 0.0508371 0 0 0 0 0 0 0 0 0 0 0 0 0 0 0 0 5 0.00126 
4714 2 0.0176856 0.0751569 -0.0337091 0 0 0 0.250379 -0.528038 -0.00314725 0.0205668 -0.0112992 -0.00569629 0 1 0 0 0 0 0 0 0 0 0 0 0 0 0 0 236 0.00126 
2263 5 0.00239521 0.0770398 -0.0328127 0 0 0 0.0636371 0.00309761 0.000569632 0 -4.10998e-05 0 0 0 0 0 0 0 0 0 0 0 0 0 0 0 0 0 296 0.00126 
7047 10 0.00926932 0.0757219 -0.0337561 0 0 0 -0.0581472 -0.215182 0.190989 0.00499118 0.00652988 0.0153911 0 0 0 1 0 0 0 0 0 0 0 0 0 0 0 0 172 0.00126 
9642 8 0.0155967 0.0763848 -0.0331111 0 0 0 0.706937 -0.206567 -0.378388 -0.0161855 0.00795853 0.00551598 0 1 0 0 0 0 0 1 0 0 0 0 0 0 0 0 9 0.00126 
9843 7 0.00466574 0.0781346 -0.0337415 0 0 0 0.191192 -0.0850958 -0.0270684 0.00384157 -0.00113525 -0.00766929 0 0 0 0 0 0 1 0 0 0 0 0 0 0 0 0 5 0.00126 
2936 8 0.00805756 0.0780248 -0.0337437 0 0 0 0.133459 0.301706 0.0323779 -0.00312184 -0.00438291 -0.00210985 0 0 0 0 0 0 0 0 0 0 0 0 0 0 0 0 283 0.00126 
4214 4 0.0111961 0.077636 -0.0332719 0 0 0 0.0866978 0.116954 0.0358181 0 -4.10998e-05 0 0 0 0 0 0 0 0 0 0 0 0 0 0 0 0 0 188 0.00126 
3793 4 0.00230747 0.079446 -0.033711 0 0 0 -0.00635142 -0.205147 -0.041845 0.000904171 -0.00322932 -0.00280492 0 0 0 1 0 0 0 0 0 0 0 0 0 0 0 0 292 0.00126 
8498 4 0.00647977 0.0799995 -0.0336605 0 0 0 0.17253 0.2627 -0.0574962 0 -4.10998e-05 0 0 0 0 0 0 0 0 0 0 0 0 0 0 0 0 0 46 0.00126 
1230 1 0.00953223 0.0802456 -0.0335201 0 0 0 0.0391027 -0.0466134 -0.167763 0.000159117 -0.000119988 -9.60423e-05 1 0 0 0 0 0 0 0 0 0 0 0 0 0 0 0 300 0.00126 
1025 1 0.0121147 0.0800157 -0.0337546 0 0 0 -0.0533822 0.0868503 0.0409446 -0.0122581 -0.00833935 -0.0131612 1 0 0 0 0 0 0 0 0 0 0 0 0 0 0 0 230 0.00126 
6931 4 0.0173467 0.0795944 -0.0337181 0 0 0 0.193175 -0.452883 -0.148625 -0.00675778 -0.00106381 -0.0109008 0 0 0 1 0 0 0 0 0 0 0 0 0 0 0 0 165 0.00126 
7457 1 0.0042975 0.0813263 -0.0337395 0 0 0 0.0153035 0.0919508 -0.00417325 0.000228488 0.000745771 -0.00314609 1 0 0 0 0 0 0 0 0 0 0 0 0 0 0 0 138 0.00126 
8127 3 0.0147442 0.0815175 -0.0336574 0 0 0 0.236609 0.143519 0.486492 0 -4.10998e-05 0 0 0 0 0 0 0 0 0 0 0 0 0 0 0 0 0 76 0.00126 
4350 1 0.00241414 0.0831834 -0.033587 0 0 0 0.041195 0.0387099 0.0643027 0 -4.10998e-05 0 0 0 0 0 0 0 0 0 0 0 0 0 0 0 0 0 205 0.00126 
7422 4 0.00934118 0.0828948 -0.033741 0 0 0 0.109105 -0.036124 0.0138302 0.00209201 -0.000485797 -0.00082484 0 0 0 1 0 0 0 0 0 0 0 0 0 0 0 0 102 0.00126 
6978 1 0.0118355 0.0824967 -0.0335466 0 0 0 0.1062 0.108216 -0.0512965 -0.00223358 0.00343666 0.00486689 1 0 0 0 0 0 0 0 0 0 0 0 0 0 0 0 104 0.00126 
1957 1 0.0181447 0.0827056 -0.0335774 0 0 0 0.491148 0.468034 -0.630177 0.00184991 -0.00122024 0.000188096 1 0 0 0 0 0 0 0 0 0 0 0 0 0 0 0 288 0.00126 
6916 6 0.00589562 0.0833791 -0.033752 0 0 0 -0.0232952 0.0207299 0.0171453 0.0021576 0.00740999 -0.00238767 0 0 0 0 0 3 0 0 0 0 0 0 0 0 0 0 131 0.00126 
3640 5 0.0143676 0.0845667 -0.0335008 0 0 0 0.374186 0.0302646 0.122226 -0.0187686 0.000840925 0.00275094 0 0 0 0 1 0 0 0 0 0 0 0 0 0 0 0 256 0.00126 
446 2 0.0168464 0.0848514 -0.0336191 0 0 0 0.125825 0.463053 -0.278763 0.0248757 -0.0143956 -0.00287799 1 1 0 0 1 0 0 0 0 0 0 0 0 0 0 0 217 0.00126 
7986 2 0.0040399 0.0852618 -0.0337521 0 0 0 -0.0255245 0.0812235 -0.0746157 0.00315995 -0.000502371 0.00441431 0 3 0 0 0 0 0 0 0 0 0 0 0 0 0 0 89 0.00126 
4059 7 0.0064817 0.0859531 -0.0337136 0 0 0 0.148044 0.0250971 -0.00833339 0 -4.10998e-05 0 0 0 0 0 0 0 0 0 0 0 0 0 0 0 0 0 294 0.00126 
4559 5 0.00921336 0.0855236 -0.0336496 0 0 0 0.128495 -0.0324877 0.104189 0.00404176 0.00581137 -0.0127504 0 0 0 0 2 0 0 0 0 0 0 0 0 0 0 0 204 0.00126 
5887 3 0.0116693 0.0849908 -0.0337427 0 0 0 0.204452 0.227727 -0.0125546 -6.50908e-05 5.2772e-05 -0.000457338 1 0 1 0 1 0 0 0 0 0 0 0 0 0 0 0 162 0.00126 
1719 8 0.00231636 0.0871003 -0.0337316 0 0 0 -0.0138261 0.0105657 0.00274574 8.85574e-05 0.000459711 -0.00145863 0 0 0 0 0 0 0 1 0 0 0 0 0 0 0 0 296 0.00126 
9145 7 0.00822947 0.0878649 -0.0337446 0 0 0 0.0590587 0.0638471 -0.160802 -0.00283239 -0.00074442 0.00523077 0 0 0 0 0 0 3 0 0 0 0 0 0 0 0 0 54 0.00126 
3321 1 0.0107262 0.0875375 -0.0337406 0 0 0 0.128488 0.0393947 0.0313765 -0.000753253 -0.000188922 -0.0024648 0 0 0 0 0 0 1 0 0 0 0 0 0 0 0 0 253 0.00126 
4456 16 0.0132281 0.087235 -0.0337263 0 0 0 0.0721119 -0.0890504 -0.0212947 0.000218151 0.000529915 -0.000359936 0 0 0 0 0 0 0 0 0 0 0 0 0 0 0 1 262 0.00126 
3625 7 0.0157781 0.087108 -0.033501 0 0 0 -0.0996126 0.165287 0.0735863 -0.00458494 0.00831514 -0.00556851 0 1 0 0 0 0 2 0 0 0 0 0 0 0 0 0 181 0.00126 
7605 12 0.0186741 0.0866017 -0.0336935 0 0 0 0.177908 -0.0768121 -0.0465288 -0.00199096 -0.000760808 -3.01858e-05 0 0 0 0 0 0 0 0 0 0 0 1 0 0 0 0 140 0.00126 
3040 3 0.00528759 0.0882478 -0.0337354 0 0 0 0.204457 0.146435 0.0193273 0 -4.10998e-05 0 0 0 0 0 0 0 0 0 0 0 0 0 0 0 0 0 272 0.00126 
7962 11 0.0146279 0.0893314 -0.0337353 0 0 0 0.00795791 -0.0187899 0.0365514 -0.00251297 0.00490053 0.00183185 0 0 0 0 0 0 1 0 0 0 0 0 0 0 0 0 123 0.00126 
9498 1 0.017561 0.0889611 -0.0337127 0 0 0 0.0833049 -0.0642383 0.069915 6.95925e-06 -2.15047e-05 6.52179e-08 1 0 0 0 0 0 0 0 0 0 0 0 0 0 0 0 23 0.00126 
4150 8 0.00234946 0.0896273 -0.0337328 0 0 0 0.0162779 0.0285715 -0.0318935 -0.000479124 -9.77374e-05 -0.000610318 0 0 0 0 0 0 0 1 0 0 0 0 0 0 0 0 220 0.00126 
905 3 0.00708425 0.090222 -0.0337407 0 0 0 0.143017 -0.000979607 -0.0296694 -0.000140359 -0.000164656 -0.000723372 0 0 1 0 0 0 0 0 0 0 0 0 0 0 0 0 231 0.00126 
5483 5 0.00962936 0.0899561 -0.0337378 0 0 0 -0.00483578 0.0938974 0.0159718 -0.000169397 0.000773058 -0.000422351 0 0 0 0 1 0 1 0 0 0 0 0 0 0 0 0 236 0.00126 
8505 1 0.0121312 0.0896765 -0.0337389 0 0 0 -0.00879439 0.0231561 0.00857381 -0.000157163 -0.000703118 -4.22369e-05 0 0 0 0 1 0 0 0 0 0 0 0 0 0 0 0 84 0.00126 