ITEM: TIMESTEP
20000000
ITEM: NUMBER OF ATOMS
4596
ITEM: BOX BOUNDS ff ff ff
-0.01 0.45
-0.15 0.15
-0.08 0.1
ITEM: ATOMS id type x y z ix iy iz vx vy vz fx fy fz c_cc_1 c_cc_2 c_cc_3 c_cc_4 c_cc_5 c_cc_6 c_cc_7 c_cc_8 c_cc_9 c_cc_10 c_cc_11 c_cc_12 c_cc_13 c_cc_14 c_cc_15 c_cc_16 f_fppacc radius 
4249 1 0.010781 -0.00945648 -0.0601237 0 0 0 -2.90268e-06 5.24758e-13 5.66305e-12 -5.36861e-19 0 0 0 0 0 0 0 0 0 0 0 0 0 0 0 0 0 0 49 0.00159 
1935 2 0.00445545 -0.00408732 -0.0565416 0 0 0 0.866261 -4.28914 2.70458 0 -8.25884e-05 0 0 0 0 0 0 0 0 0 0 0 0 0 0 0 0 0 248 0.00159 
4383 5 0.00329973 -0.0216417 -0.0571154 0 0 0 1.58052e-11 -9.36901e-15 -2.25656e-14 7.49081e-13 0 0 0 0 0 0 0 0 0 0 0 0 0 0 0 0 0 0 11 0.00159 
4822 7 0.0154394 -0.013865 -0.0555713 0 0 0 1.36758 -4.23896 1.20708 0 -8.25884e-05 0 0 0 0 0 0 0 0 0 0 0 0 0 0 0 0 0 1 0.00159 
3646 11 0.0160754 -0.00720557 -0.0535483 0 0 0 0.203491 -1.62657 1.02988 0 -8.25884e-05 0 0 0 0 0 0 0 0 0 0 0 0 0 0 0 0 0 100 0.00159 
4771 2 0.0078181 -0.0318674 -0.0423704 0 0 0 0.24373 -16.8246 22.2029 0 -8.25884e-05 0 0 0 0 0 0 0 0 0 0 0 0 0 0 0 0 0 1 0.00159 
4458 3 0.00879604 -0.00667539 -0.0483796 0 0 0 6.80022 -10.5465 9.73591 0 -8.25884e-05 0 0 0 0 0 0 0 0 0 0 0 0 0 0 0 0 0 1 0.00159 
253 5 0.0180606 -0.0134362 -0.0504722 0 0 0 1.24257 -0.618853 0.856037 0 -8.25884e-05 0 0 0 0 0 0 0 0 0 0 0 0 0 0 0 0 0 266 0.00159 
4887 2 0.00635907 -0.0083644 -0.0497738 0 0 0 -0.495295 1.01984 2.66665 0 -8.25884e-05 0 0 0 0 0 0 0 0 0 0 0 0 0 0 0 0 0 0 0.00159 
25 1 0.00378701 -0.0293169 -0.0467319 0 0 0 -1.616 -8.48106 1.4851 0 -8.25884e-05 0 0 0 0 0 0 0 0 0 0 0 0 0 0 0 0 0 230 0.00159 
406 3 0.00492287 -0.0207427 -0.040308 0 0 0 0.76549 -6.38471 3.77323 0 -8.25884e-05 0 0 0 0 0 0 0 0 0 0 0 0 0 0 0 0 0 208 0.00159 
4521 4 0.0134674 -0.0574503 0.00942077 0 0 0 -0.295429 3.06347 12.6246 -0.0115078 0.0815074 -0.0093781 0 0 0 0 0 0 0 0 0 0 0 0 0 0 0 0 37 0.00159 
4939 3 0.00412367 -0.0536249 -0.0229031 0 0 0 -16.3869 -10.8459 27.1005 0.0309937 0.621498 0.180806 0 0 0 0 0 0 0 0 0 0 0 0 0 0 0 0 0 0.00159 
1284 4 0.00338991 -0.0227359 -0.0359246 0 0 0 0.0605791 -2.09513 -0.139745 0 -8.25884e-05 0 0 0 0 0 0 0 0 0 0 0 0 0 0 0 0 0 157 0.00159 
4921 5 0.0139797 -0.0581638 -0.00355945 0 0 0 11.0705 -4.35205 33.7762 0.359493 0.306756 0.039563 0 0 0 0 0 0 0 0 0 0 0 0 0 0 0 0 0 0.00159 
4070 2 0.0173367 -0.0606687 -0.00505417 0 0 0 0.00140894 -9.76666e-12 1.88065e-11 0.000407613 5.82645e-12 -1.09983e-11 0 0 0 0 0 0 0 0 0 0 0 0 0 0 0 0 50 0.00159 
1422 4 0.0026653 -0.055912 0.00164944 0 0 0 0.0898946 0.343104 6.21132 0 -8.25884e-05 0 0 0 0 0 0 0 0 0 0 0 0 0 0 0 0 0 261 0.00159 
540 2 0.0148018 -0.0578079 0.00623456 0 0 0 -1.1265 0.602931 12.4944 0 -8.25884e-05 0 0 0 0 0 0 0 0 0 0 0 0 0 0 0 0 0 224 0.00159 
659 7 0.0184432 -0.0312241 -0.0457861 0 0 0 -1.65707 -6.34205 5.33172 0 -8.25884e-05 0 0 0 0 0 0 0 0 0 0 0 0 0 0 0 0 0 274 0.00159 
4004 1 0.00759479 -0.000426637 -0.0463422 0 0 0 0.302319 -8.93687 -9.18494 0 -8.25884e-05 0 0 0 0 0 0 0 0 0 0 0 0 0 0 0 0 0 89 0.00159 
689 5 0.00812174 -0.0476232 0.0184708 0 0 0 2.33109 2.56949 13.7274 0 -8.25884e-05 0 0 0 0 0 0 0 0 0 0 0 0 0 0 0 0 0 291 0.00159 
818 7 0.0147278 -0.0506794 0.0248625 0 0 0 -0.377071 8.66378 5.57983 0 -8.25884e-05 0 0 0 0 0 0 0 0 0 0 0 0 0 0 0 0 0 280 0.00159 
3837 3 0.0150422 -0.0554388 0.0250375 0 0 0 0.000272001 4.99146e-05 -0.00226529 0.000769711 -0.00136188 0.00160714 0 0 0 0 0 0 0 0 0 0 0 0 0 0 0 0 0 0.00159 
2697 3 0.009487 -0.0453259 0.0363484 0 0 0 1.94812 7.19473 10.4977 0 -8.25884e-05 0 0 0 0 0 0 0 0 0 0 0 0 0 0 0 0 0 151 0.00159 
1078 6 0.00354076 -0.0436807 0.0379426 0 0 0 0.49703 4.51796 3.99987 0 -8.25884e-05 0 0 0 0 0 0 0 0 0 0 0 0 0 0 0 0 0 232 0.00159 
1673 9 0.0039686 -0.0406287 0.0402684 0 0 0 0.473353 4.30694 4.93435 0 -8.25884e-05 0 0 0 0 0 0 0 0 0 0 0 0 0 0 0 0 0 185 0.00159 
4927 1 0.00853016 -0.0215947 0.0430252 0 0 0 2.57632 10.2653 7.29734 0 -8.25884e-05 0 0 0 0 0 0 0 0 0 0 0 0 0 0 0 0 0 0 0.00159 
4884 5 0.0027066 -0.0317826 0.0481985 0 0 0 3.07458 10.5045 4.31547 0 -8.25884e-05 0 0 0 0 0 0 0 0 0 0 0 0 0 0 0 0 0 2 0.00159 
3332 3 0.0176129 -0.015666 0.0537371 0 0 0 -0.130151 17.1131 10.0868 0 -8.25884e-05 0 0 0 0 0 0 0 0 0 0 0 0 0 0 0 0 0 141 0.00159 
3001 7 0.0186787 -0.0250924 0.0518511 0 0 0 1.7685 5.49819 2.82997 0 -8.25884e-05 0 0 0 0 0 0 0 0 0 0 0 0 0 0 0 0 0 171 0.00159 
2249 7 0.00534042 -0.00649586 0.0578789 0 0 0 -4.01393 29.3573 5.08043 0.0760012 0.0290167 -0.565598 0 0 0 0 0 0 0 0 0 0 0 0 0 0 0 0 234 0.00159 
2822 8 0.003034 -0.00246675 0.0573841 0 0 0 5.07814 22.9477 0.0640325 0 -8.25884e-05 0 0 0 0 0 0 0 0 0 0 0 0 0 0 0 0 0 225 0.00159 
2883 2 0.0102748 -0.00136165 0.0582379 0 0 0 -12.2718 32.3234 1.4695 0 -8.25884e-05 0 0 0 0 0 0 0 0 0 0 0 0 0 0 0 0 0 107 0.00159 
2662 3 0.0175924 0.0109608 -0.059866 0 0 0 1.07361e-07 2.31048e-16 1.75378e-14 7.89948e-09 1.66533e-16 0 0 0 0 0 0 0 0 0 0 0 0 0 0 0 0 0 162 0.00159 
3806 3 0.0114427 0.0128135 -0.0595048 0 0 0 -9.81404e-07 -8.21854e-13 2.85067e-12 -1.89888e-14 2.9976e-14 6.21725e-15 0 0 0 0 0 0 0 0 0 0 0 0 0 0 0 0 111 0.00159 
3102 1 0.0109061 0.106328 0.00947703 0 0 0 0.0233688 0.0209281 0.126152 1.82711e-05 -8.33983e-05 -3.99505e-05 1 0 0 0 0 0 0 0 0 0 0 0 0 0 0 0 166 0.00159 
4710 2 0.00710941 0.0144209 -0.0562474 0 0 0 -0.104156 -1.46602 -0.302237 0 -8.25884e-05 0 0 0 0 0 0 0 0 0 0 0 0 0 0 0 0 0 1 0.00159 
2855 5 0.0100836 0.022088 -0.0568547 0 0 0 7.44171e-17 -5.77306e-16 8.1265e-16 0 0 0 0 0 0 0 0 0 0 0 0 0 0 0 0 0 0 0 138 0.00159 
92 5 0.0071722 0.0229722 -0.056448 0 0 0 -2.55314e-16 -1.24034e-15 1.63474e-15 0 0 0 0 0 0 0 0 0 0 0 0 0 0 0 0 0 0 0 0 0.00159 
3370 2 0.00271232 0.0191474 -0.0549953 0 0 0 0.0132941 -1.50741 -0.359619 0 -8.25884e-05 0 0 0 0 0 0 0 0 0 0 0 0 0 0 0 0 0 29 0.00159 
1138 11 0.00412242 0.0138376 -0.0539395 0 0 0 0.323755 -2.61847 -1.12896 0 -8.25884e-05 0 0 0 0 0 0 0 0 0 0 0 0 0 0 0 0 0 259 0.00159 
1641 4 0.00942774 0.0148115 -0.0540139 0 0 0 0.616686 -1.37677 -0.810221 0 -8.25884e-05 0 0 0 0 0 0 0 0 0 0 0 0 0 0 0 0 0 164 0.00159 
4190 4 0.00306118 0.0266613 -0.0513589 0 0 0 -0.122773 -0.611629 -0.110612 0 -8.25884e-05 0 0 0 0 0 0 0 0 0 0 0 0 0 0 0 0 0 100 0.00159 
11 1 0.00577353 0.0328219 -0.0513956 0 0 0 -8.91952e-30 -1.11989e-14 1.42175e-14 3.9443e-31 0 0 0 0 0 0 0 0 0 0 0 0 0 0 0 0 0 0 2 0.00159 
3447 4 0.0101939 0.0318832 -0.0425701 0 0 0 0.761513 0.614262 1.4742 0 -8.25884e-05 0 0 0 0 0 0 0 0 0 0 0 0 0 0 0 0 0 110 0.00159 
1912 11 0.00497971 0.0577792 0.00898138 0 0 0 3.46234 4.98854 -15.1013 0 -8.25884e-05 0 0 0 0 0 0 0 0 0 0 0 0 0 0 0 0 0 269 0.00159 
3774 3 0.0142746 0.0331946 -0.0372997 0 0 0 2.23357 -1.77674 0.775475 0 -8.25884e-05 0 0 0 0 0 0 0 0 0 0 0 0 0 0 0 0 0 126 0.00159 
3819 2 0.0031729 0.0209299 -0.0360856 0 0 0 -0.209085 -1.45193 -0.384645 0 -8.25884e-05 0 0 0 0 0 0 0 0 0 0 0 0 0 0 0 0 0 108 0.00159 
4768 1 0.0175019 0.0396005 -0.0423233 0 0 0 -0.19129 3.40349 -14.5952 0 -8.25884e-05 0 0 0 0 0 0 0 0 0 0 0 0 0 0 0 0 0 0 0.00159 
4760 5 0.0137545 0.0492749 -0.0360976 0 0 0 2.30525e-16 2.7343e-14 -3.83197e-16 5.55112e-17 0 0 0 0 0 0 0 0 0 0 0 0 0 0 0 0 0 0 0 0.00159 
867 11 0.0159917 0.0516602 -0.0355151 0 0 0 -4.37193e-10 -2.08866e-10 -1.73427e-12 7.10297e-11 3.39412e-11 -3.55271e-15 0 0 0 0 0 0 0 0 0 0 1 0 0 0 0 0 136 0.00159 
3410 5 0.0120855 0.0554905 -0.0355 0 0 0 9.68816e-19 1.17436e-18 -4.14384e-12 -2.98284e-19 -3.93023e-19 1.77636e-15 0 0 0 0 0 0 0 0 0 0 0 0 0 0 0 0 4 0.00159 
2863 3 0.0148983 0.0539498 -0.0354849 0 0 0 4.37194e-10 2.08865e-10 -1.71158e-12 -7.10296e-11 -3.39406e-11 3.55271e-15 0 0 0 0 0 0 0 0 0 0 1 0 0 0 0 0 142 0.00159 
3403 3 0.0159945 0.057415 -0.0355008 0 0 0 -1.10547e-13 2.80188e-13 6.86787e-13 4.25424e-14 -1.07794e-13 0 0 0 1 0 0 0 0 0 0 0 0 0 0 0 0 0 127 0.00159 
480 3 0.0127569 0.0595169 -0.0354938 0 0 0 -3.10571e-15 -6.84048e-15 -6.86833e-13 1.44329e-15 -5.55112e-16 0 0 0 1 0 0 0 0 0 0 0 0 0 0 0 0 0 300 0.00159 
477 2 0.0152383 0.0605292 -0.0355062 0 0 0 2.86285e-15 6.67322e-15 -6.92106e-13 -1.55431e-15 5.55112e-16 0 0 0 1 0 0 0 0 0 0 0 0 0 0 0 0 0 453 0.00159 
1061 7 0.0181346 0.0618512 -0.0355017 0 0 0 -6.98031e-07 -1.67263e-07 -3.06966e-12 1.47148e-07 3.5259e-08 -9.69891e-13 0 0 0 0 0 0 1 0 0 0 0 0 0 0 0 0 493 0.00159 
216 5 0.0125172 0.0642097 -0.0355 0 0 0 1.82606e-07 1.55669e-08 1.06276e-07 -8.52637e-08 -1.65832e-08 -4.59306e-09 0 0 0 0 0 0 0 0 0 0 0 0 0 0 0 0 13 0.00159 
228 2 0.0174372 0.0647616 -0.0354983 0 0 0 6.98037e-07 1.67264e-07 9.88979e-13 -1.47146e-07 -3.52596e-08 -2.52243e-13 0 0 0 0 0 0 1 0 0 0 0 0 0 0 0 0 318 0.00159 
755 1 0.0170351 0.0684753 -0.0355 0 0 0 1.06249e-36 3.94405e-19 -5.51577e-12 -4.04085e-37 0 0 0 0 0 0 0 0 0 0 0 0 0 0 0 0 0 0 10 0.00159 
218 3 0.00774335 0.06912 -0.0355 0 0 0 0.000649292 0.00381062 0.00271983 -5.3847e-06 -0.000478915 -0.000328491 0 0 1 0 0 0 0 0 0 0 0 0 0 0 0 0 16 0.00159 
3812 9 0.0117125 0.0708408 -0.0355 0 0 0 -3.48755e-48 3.9571e-19 -5.51591e-12 6.00392e-48 0 0 0 0 0 0 0 0 0 0 0 0 0 0 0 0 0 0 34 0.00159 
179 2 0.0155472 0.0746606 -0.0355 0 0 0 1.68613e-26 -1.48048e-19 -6.94022e-13 -7.23558e-27 0 -1.77636e-15 0 0 0 0 0 0 0 0 0 0 0 0 0 0 0 0 21 0.00159 
2498 2 0.00309559 0.0177261 -0.0327687 0 0 0 -1.4467 -1.41918 3.90674 0 -8.25884e-05 0 0 0 0 0 0 0 0 0 0 0 0 0 0 0 0 0 220 0.00159 
1596 3 0.0131418 0.0194522 -0.0332095 0 0 0 0.278644 -0.927313 -0.0421447 0 -8.25884e-05 0 0 0 0 0 0 0 0 0 0 0 0 0 0 0 0 0 244 0.00159 
4577 1 0.0115627 0.0261478 -0.0337702 0 0 0 -0.778535 -3.5264 -0.536947 0 -8.25884e-05 0 0 0 0 0 0 0 0 0 0 0 0 0 0 0 0 0 31 0.00159 
1082 9 0.0043255 0.0402884 -0.0348567 0 0 0 0.339071 -0.399678 -0.539154 0 -8.25884e-05 0 0 0 0 0 0 0 0 0 0 0 0 0 0 0 0 0 258 0.00159 
834 3 0.00880169 0.0630739 -0.0334455 0 0 0 -2.99556 -0.393772 0.134014 0.0404116 0.000995021 0.0808519 0 0 0 0 0 0 0 0 0 0 0 0 0 0 0 0 270 0.00159 
1758 9 0.0102465 0.0667213 -0.0333102 0 0 0 -1.01037 -1.74648 0.457739 0 -8.25884e-05 0 0 0 0 0 0 0 0 0 0 0 0 0 0 0 0 0 292 0.00159 
4352 4 0.00860339 0.07344 -0.0334099 0 0 0 -0.0359933 -0.478936 0.211151 0.00249941 0.0113438 0.00246754 0 0 0 0 0 0 0 0 0 0 0 0 0 0 0 0 51 0.00159 
4779 5 0.0186569 0.0723465 -0.0331971 0 0 0 1.14813 -0.551973 0.540863 0 -8.25884e-05 0 0 0 0 0 0 0 0 0 0 0 0 0 0 0 0 0 4 0.00159 
3144 6 0.00262435 0.07949 -0.0331655 0 0 0 0.0170748 -0.211494 0.0797113 0 -8.25884e-05 0 0 0 0 0 0 0 0 0 0 0 0 0 0 0 0 0 171 0.00159 
4728 3 0.00908205 0.0785756 -0.0334369 0 0 0 -0.0347266 -0.759158 0.194834 -0.0339549 0.0464744 -0.00715348 0 0 2 0 0 0 0 0 0 0 0 0 0 0 0 0 11 0.00159 
4864 6 0.013531 0.0772926 -0.0333261 0 0 0 0.0776636 -0.862034 -0.237477 -0.0165815 0.0125905 -0.026587 0 0 0 0 0 0 0 0 0 0 0 0 0 0 0 0 2 0.00159 
4121 1 0.00595645 0.0795229 -0.0334058 0 0 0 -0.0558289 -0.345743 -0.543688 0 -8.25884e-05 0 0 0 0 0 0 0 0 0 0 0 0 0 0 0 0 0 85 0.00159 
4335 7 0.0156822 0.080938 -0.0334133 0 0 0 0.44305 -0.15034 -0.0475732 -0.00235834 0.000789108 0.00502857 0 0 0 0 0 0 0 0 0 0 0 0 0 0 0 0 71 0.00159 
4281 2 0.00424543 0.0823607 -0.0334218 0 0 0 0.202455 0.11532 0.136994 -0.000587268 -0.000884273 -0.00239402 0 2 0 0 0 0 0 0 0 0 0 0 0 0 0 0 69 0.00159 
125 2 0.0116824 0.0814593 -0.0333981 0 0 0 -0.376609 -0.354635 0.232891 0 -8.25884e-05 0 0 0 0 0 0 0 0 0 0 0 0 0 0 0 0 0 283 0.00159 
1768 4 0.00259649 0.0850855 -0.0334127 0 0 0 0.0501143 0.100939 -0.00542841 0.000883849 -0.00361987 0.00022861 0 0 0 1 0 0 0 0 0 0 0 0 0 0 0 0 136 0.00159 
3313 4 0.00721873 0.0834065 -0.0334153 0 0 0 0.227459 0.0715012 0.0589837 0.0209049 0.00618014 -0.00111219 0 1 0 1 0 0 0 0 0 0 0 0 0 0 0 0 185 0.00159 
4829 5 0.0102446 0.0843768 -0.0332682 0 0 0 0.218841 -0.137716 0.214377 0 -8.25884e-05 0 0 0 0 0 0 0 0 0 0 0 0 0 0 0 0 0 2 0.00159 
789 7 0.0141716 0.0838845 -0.0331364 0 0 0 -0.016082 -0.223579 0.260744 0 -8.25884e-05 0 0 0 0 0 0 0 0 0 0 0 0 0 0 0 0 0 289 0.00159 
3672 1 0.017755 0.0847458 -0.03333 0 0 0 -0.0743529 -0.0454703 -0.329954 0.00058942 -0.00259542 0.00377506 1 0 0 0 0 0 0 0 0 0 0 0 0 0 0 0 75 0.00159 
2297 11 0.00632393 0.0865589 -0.0334148 0 0 0 0.136575 0.155894 -0.0408302 -0.0032081 0.0068574 -0.00754694 0 0 0 0 0 0 0 0 0 0 1 0 0 0 0 0 263 0.00159 
4623 2 0.0155142 0.0870085 -0.0333538 0 0 0 -0.0315189 -0.0373145 0.0834057 0 -8.25884e-05 0 0 0 0 0 0 0 0 0 0 0 0 0 0 0 0 0 10 0.00159 
1214 6 0.00356902 0.0882839 -0.0333775 0 0 0 -0.0612534 -0.0702686 -0.0415258 0 -8.25884e-05 0 0 0 0 0 0 0 0 0 0 0 0 0 0 0 0 0 282 0.00159 
4774 1 0.00937727 0.0878983 -0.0333521 0 0 0 -0.000817318 -0.177456 0.0422529 0.00107446 0.00163773 -0.000824359 2 0 0 0 0 0 0 0 0 0 0 0 0 0 0 0 18 0.00159 
4090 4 0.0187174 0.0886742 -0.0334009 0 0 0 0.0795126 0.349028 -0.00772108 -0.00699233 -0.0232551 -0.00288572 0 0 0 1 0 0 0 0 0 0 0 0 0 0 0 0 72 0.00159 
1039 2 0.0123949 0.0888814 -0.0333645 0 0 0 0.0179672 0.191184 -0.357238 0.000863415 -0.00208198 0.00209668 1 0 0 0 0 0 0 0 0 0 0 0 0 0 0 0 279 0.00159 
4216 4 0.0156634 0.0903833 -0.0333874 0 0 0 0.0305918 -0.0122266 0.0336111 -0.00780915 -0.0023276 -0.000575076 0 0 0 1 0 0 0 0 0 0 0 0 0 0 0 0 59 0.00159 
294 1 0.00260921 0.0913631 -0.033417 0 0 0 0.0390002 0.0702632 0.0312941 -9.05149e-05 -0.00198542 0.00318021 2 0 0 0 0 0 0 0 0 0 0 0 0 0 0 0 259 0.00159 
940 2 0.00586254 0.0910154 -0.0333805 0 0 0 0.0924555 -0.113182 0.0257489 -0.000440091 0.000210885 0.000122696 0 1 0 0 0 0 0 0 0 0 0 0 0 0 0 0 224 0.00159 
3836 1 0.00982861 0.0910544 -0.0334078 0 0 0 0.231725 -0.170869 0.0397294 -0.000307904 0.0003601 -0.000453671 3 0 0 0 0 0 0 0 0 0 0 0 0 0 0 0 120 0.00159 
3844 4 0.0128171 0.0921212 -0.0334127 0 0 0 0.157079 0.00988027 0.0381967 -0.00499803 -0.00296054 -0.00281854 1 0 0 1 0 0 0 0 0 0 0 0 0 0 0 0 152 0.00159 
4013 14 0.00327783 0.0944621 -0.0334008 0 0 0 0.0318966 0.0574653 -0.0498612 0.000431127 -0.00192133 0.00371478 1 0 0 0 0 0 0 0 0 0 0 0 0 1 0 0 113 0.00159 
446 2 0.00666618 0.0941222 -0.0334166 0 0 0 -0.0178987 -0.00122024 0.000801727 0.000629326 -0.00271071 0.000456151 0 3 0 0 0 0 0 0 0 0 0 0 0 0 0 0 179 0.00159 
2302 4 0.0098358 0.0942341 -0.0334046 0 0 0 0.00222564 -0.1271 -0.0199075 0.00238417 0.000511484 0.000121425 1 1 0 2 0 0 0 0 0 0 0 0 0 0 0 0 256 0.00159 
4052 2 0.0174577 0.093005 -0.0334076 0 0 0 -0.0392641 -0.276852 0.0317253 0.00049459 -0.00264503 0.000695601 0 2 0 1 0 0 0 0 0 0 0 0 0 0 0 0 78 0.00159 
2089 5 0.0147359 0.0946444 -0.0334005 0 0 0 0.0832758 -0.0660703 0.0332427 0.0058069 0.000162437 -0.000579842 0 1 0 1 1 0 0 0 0 0 0 0 0 0 0 0 194 0.00159 
4431 8 0.00276187 0.0975888 -0.033412 0 0 0 0.0529595 0.0223179 0.00358977 -0.00114592 0.00404394 -0.00204148 0 0 0 0 0 0 0 3 0 0 0 0 0 1 0 0 66 0.00159 
2771 3 0.00815778 0.0969404 -0.0334157 0 0 0 0.0265793 -0.0118062 -0.00476361 -0.00154899 0.00226862 -0.00138519 0 0 3 0 0 0 0 0 0 0 0 0 0 0 0 0 192 0.00159 
565 5 0.0114696 0.0969567 -0.0333979 0 0 0 0.0878794 -0.151351 0.00524094 0.00026414 -0.000347579 -0.00186343 0 0 0 1 2 0 0 0 0 0 0 0 0 0 0 0 291 0.00159 
3431 7 0.0144877 0.0980532 -0.0333983 0 0 0 -0.0149714 0.010487 0.0236924 0 -8.25884e-05 0 0 0 0 0 0 0 0 0 0 0 0 0 0 0 0 0 142 0.00159 
3334 5 0.0174258 0.0963143 -0.0333383 0 0 0 0.16772 0.056102 0.0167653 -0.00692813 -0.00359585 0.00129209 0 0 0 0 1 0 0 0 0 0 0 0 0 0 0 0 151 0.00159 
3579 1 0.00549194 0.0994044 -0.0334056 0 0 0 0.00189963 0.012935 -0.00187366 0.00167813 -0.000856879 -0.0003196 2 0 0 0 0 0 0 0 0 0 0 0 0 0 0 0 141 0.00159 
1546 2 0.0174213 0.0995051 -0.0334123 0 0 0 0.0910592 -0.0794788 0.0188033 -0.000457463 -7.9874e-05 2.73154e-05 0 2 0 0 0 0 0 0 0 0 0 0 0 0 0 0 253 0.00159 
2982 5 0.00258629 0.10076 -0.0334179 0 0 0 0.00565531 -0.00607774 -0.0155724 -0.000510915 0.00102945 0.000334799 0 0 0 0 2 0 0 1 0 0 0 0 0 0 0 0 204 0.00159 
2313 2 0.00869231 0.100072 -0.0334 0 0 0 0.0897585 -0.0173201 -0.0322056 -2.85095e-05 -0.00044664 -0.000519802 0 1 1 0 0 0 0 0 0 0 0 0 0 0 0 0 241 0.00159 
4165 7 0.0119593 0.100094 -0.0334191 0 0 0 0.03507 -0.12149 0.00272724 0.000146757 -0.00333673 -0.000418224 0 0 0 0 1 0 3 0 0 0 0 0 0 0 0 0 84 0.00159 
3639 11 0.00527312 0.102573 -0.033395 0 0 0 -0.05646 -0.0454336 0.0563071 -0.00200243 0.00100532 0.000384173 1 0 0 0 0 0 0 0 0 0 1 0 0 0 0 0 168 0.00159 
3476 6 0.00847678 0.10334 -0.0334206 0 0 0 0.00977692 -0.0311762 0.00561834 -0.000155675 -0.00250834 -0.000613598 0 0 0 0 0 3 0 0 0 0 0 0 0 0 0 0 167 0.00159 
1124 6 0.0145504 0.101919 -0.0334106 0 0 0 0.00651221 -0.0452902 -0.00692964 -0.00292897 -0.00332173 -0.000633599 0 0 0 0 0 2 1 0 0 0 0 0 0 0 0 0 278 0.00159 
3285 3 0.0176138 0.102711 -0.0334169 0 0 0 0.0401338 -0.0646258 0.0121193 -0.00307642 -0.00255053 0.000493461 0 0 4 0 0 1 0 0 0 0 0 0 0 0 0 0 188 0.00159 
1006 4 0.0140491 0.105425 -0.0333876 0 0 0 -0.0404698 0.100836 0.0271203 0 -8.25884e-05 0 0 0 0 0 0 0 0 0 0 0 0 0 0 0 0 0 267 0.00159 
4025 8 0.00258186 0.106196 -0.033419 0 0 0 0.00913257 -0.0133657 -0.00257197 0.000111905 9.00046e-05 -5.77308e-05 0 0 0 0 0 0 0 3 0 0 0 0 0 0 0 0 97 0.00159 
3630 9 0.00624604 0.105584 -0.0331436 0 0 0 -0.0162493 -0.0202448 0.011579 0.0017239 -0.00212953 9.34431e-05 0 0 0 0 0 1 0 0 1 0 1 0 0 0 0 0 197 0.00159 
215 9 0.010419 0.105828 -0.0334205 0 0 0 0.0147417 -0.0173248 0.022428 0.00260513 -0.0013124 0.000328874 0 0 0 0 0 1 0 0 3 0 0 0 0 0 0 0 343 0.00159 
502 3 0.0173083 0.105861 -0.0333983 0 0 0 0.0318938 -0.0443677 0.0259074 -0.00178798 -0.00011042 0.000404171 0 0 1 0 0 0 0 0 0 0 0 0 0 0 0 0 304 0.00159 
2023 14 0.0048445 0.108418 -0.0333986 0 0 0 0.00899261 -0.00642518 -0.00290243 0.00039211 -0.00118323 -0.000624367 0 0 0 0 0 0 0 1 1 0 0 0 0 2 0 0 280 0.00159 
3090 3 0.00826006 0.108418 -0.0334152 0 0 0 0.00438662 0.00127548 0.0065773 -0.000153358 -0.000351686 -0.000625609 0 0 1 0 0 0 0 0 0 0 0 0 0 0 0 0 212 0.00159 
1980 11 0.0122084 0.108422 -0.03329 0 0 0 0.0810775 -0.0254027 0.0194424 0.000319934 -0.000937411 -0.000414114 0 0 0 0 0 0 0 0 1 0 1 0 0 0 0 0 332 0.00159 
2942 7 0.015381 0.108413 -0.0334161 0 0 0 0.00570871 0.00443254 0.00526602 0.00124509 0.000578963 -0.000235387 0 0 0 0 0 0 2 0 0 0 1 0 0 0 0 0 236 0.00159 
8 6 0.0141714 0.0379244 -0.0316077 0 0 0 0.479369 -2.78235 -0.555567 0 -8.25884e-05 0 0 0 0 0 0 0 0 0 0 0 0 0 0 0 0 0 304 0.00159 
2779 3 0.00306924 0.0585354 -0.03196 0 0 0 -0.114624 -1.72381 -0.741633 -0.0357062 -0.027885 0.00628395 0 0 1 0 0 0 0 0 0 0 0 0 0 0 0 0 194 0.00159 
407 4 0.00448504 0.061065 -0.0331826 0 0 0 -3.59446 -0.500772 -1.59073 0.0357062 0.0277198 -0.00628395 0 0 1 0 0 0 0 0 0 0 0 0 0 0 0 0 252 0.00159 
4823 3 0.00265561 0.063709 -0.0330045 0 0 0 -0.221181 -0.486855 -0.208296 -0.00065285 -0.00505039 -0.000482991 0 0 1 0 0 0 0 0 0 0 0 0 0 0 0 0 6 0.00159 
1432 5 0.00283999 0.0668606 -0.0327516 0 0 0 0.147047 -0.458296 0.0914305 0.000638995 0.00474642 0.00108145 0 0 1 0 1 0 0 0 0 0 0 0 0 0 0 0 233 0.00159 
1017 1 0.00541055 0.108411 0.0088762 0 0 0 -0.0177316 -0.00190774 0.0820089 7.63985e-05 0.000181026 -0.000291627 0 0 0 0 0 0 0 0 0 0 0 0 0 0 0 0 293 0.00159 
2792 1 0.00520528 0.0691759 -0.0317262 0 0 0 -0.202885 -0.0208087 0.50924 0 -8.25884e-05 0 0 0 0 0 0 0 0 0 0 0 0 0 0 0 0 0 154 0.00159 
2827 9 0.00300667 0.0715796 -0.0326999 0 0 0 0.918247 -0.790707 -0.233438 0 -8.25884e-05 0 0 0 0 0 0 0 0 0 0 0 0 0 0 0 0 0 206 0.00159 
21 4 0.0082728 0.0703898 -0.0326482 0 0 0 -0.123678 -0.467157 0.481652 -0.00235864 -0.0106225 -0.00174264 0 0 1 0 0 0 0 0 0 0 0 0 0 0 0 0 224 0.00159 
3416 9 0.00272069 0.0752737 -0.0324038 0 0 0 -0.278428 -0.614593 -0.772288 0 -8.25884e-05 0 0 0 0 0 0 0 0 0 0 0 0 0 0 0 0 0 205 0.00159 
4076 12 0.00629307 0.0759041 -0.0332708 0 0 0 0.327513 0.190367 -1.39476 0 -8.25884e-05 0 0 0 0 0 0 0 0 0 0 0 0 0 0 0 0 0 101 0.00159 
2202 10 0.012501 0.0740508 -0.0328633 0 0 0 -1.00234 -0.333901 -1.63745 0 -8.25884e-05 0 0 0 0 0 0 0 0 0 0 0 0 0 0 0 0 0 188 0.00159 
817 3 0.0161395 0.0752665 -0.0320637 0 0 0 -0.124026 -0.549699 -0.566336 0.0233611 0.00365997 -0.00510786 0 0 2 0 0 0 0 0 0 0 0 0 0 0 0 0 263 0.00159 
1670 5 0.0176547 0.0780505 -0.0322957 0 0 0 0.719953 0.0108984 1.30687 -0.00647451 -0.0122688 0.00280821 0 0 1 0 0 0 0 0 0 0 0 0 0 0 0 0 250 0.00159 
272 4 0.0053843 0.0966035 -0.0319131 0 0 0 0.00360882 0.00750449 -0.00968767 -4.44034e-05 -0.000910325 0.00134253 1 1 1 2 0 0 0 1 0 0 0 0 0 0 0 0 281 0.00159 
3340 3 0.00261196 0.10348 -0.0317931 0 0 0 0.00027452 -0.0395191 0.00322582 -0.000596181 0.000979494 -0.00173988 0 0 2 0 1 0 0 1 0 0 0 0 0 0 0 0 173 0.00159 
4540 4 0.011575 0.103064 -0.0324199 0 0 0 -0.0182686 -0.0900747 -0.0376501 0.00252315 -0.00256184 -0.000146077 0 0 0 1 0 0 1 0 1 0 0 0 0 0 0 0 92 0.00159 
1508 3 0.00891976 0.0422013 -0.03056 0 0 0 0.202798 -2.44567 0.627944 0 -8.25884e-05 0 0 0 0 0 0 0 0 0 0 0 0 0 0 0 0 0 252 0.00159 
1008 3 0.0044907 0.0486217 -0.0310631 0 0 0 0.225483 -1.13029 0.293465 0 -8.25884e-05 0 0 0 0 0 0 0 0 0 0 0 0 0 0 0 0 0 235 0.00159 
4028 9 0.0121647 0.0558194 -0.0291351 0 0 0 -0.420016 -4.9128 2.28112 0 -8.25884e-05 0 0 0 0 0 0 0 0 0 0 0 0 0 0 0 0 0 112 0.00159 
1592 2 0.00685566 0.0611188 -0.0305451 0 0 0 -2.50657 -0.336547 0.89869 0.112754 -0.101466 -0.0717706 0 1 0 0 0 0 0 0 0 0 0 0 0 0 0 0 265 0.00159 
715 8 0.0114602 0.0626239 -0.03148 0 0 0 -2.73123 -1.79924 0.0314504 0 -8.25884e-05 0 0 0 0 0 0 0 0 0 0 0 0 0 0 0 0 0 297 0.00159 
4164 4 0.00352952 0.0650423 -0.0302403 0 0 0 -0.18199 -0.542921 0.215497 1.3855e-05 5.621e-05 -0.000598456 0 0 0 0 1 0 0 0 0 0 0 0 0 0 0 0 74 0.00159 
2062 1 0.00695595 0.0663488 -0.0303528 0 0 0 -0.0224404 -0.654764 0.296753 0 -8.25884e-05 0 0 0 0 0 0 0 0 0 0 0 0 0 0 0 0 0 199 0.00159 
2561 4 0.0120504 0.0676206 -0.0306748 0 0 0 0.617222 -1.11123 -0.568231 0 -8.25884e-05 0 0 0 0 0 0 0 0 0 0 0 0 0 0 0 0 0 221 0.00159 
1400 7 0.0153712 0.067459 -0.0318412 0 0 0 1.47124 -1.52776 -1.97353 0 -8.25884e-05 0 0 0 0 0 0 0 0 0 0 0 0 0 0 0 0 0 210 0.00159 
2430 2 0.0111703 0.0712949 -0.0313062 0 0 0 0.516638 -1.3298 -0.449511 0 -8.25884e-05 0 0 0 0 0 0 0 0 0 0 0 0 0 0 0 0 0 192 0.00159 
2441 2 0.00260176 0.0719386 -0.0295346 0 0 0 -0.103384 -1.45255 0.409098 0 -8.25884e-05 0 0 0 0 0 0 0 0 0 0 0 0 0 0 0 0 0 222 0.00159 
1608 5 0.00645298 0.0726596 -0.0310559 0 0 0 -0.0869808 -0.252548 0.104679 0 -8.25884e-05 0 0 0 0 0 0 0 0 0 0 0 0 0 0 0 0 0 253 0.00159 
1969 5 0.014407 0.0731073 -0.0304868 0 0 0 -1.4637 0.454499 0.406756 0 -8.25884e-05 0 0 0 0 0 0 0 0 0 0 0 0 0 0 0 0 0 216 0.00159 
680 3 0.0101617 0.0750945 -0.0307623 0 0 0 -0.593962 -1.29988 0.119181 0 -8.25884e-05 0 0 0 0 0 0 0 0 0 0 0 0 0 0 0 0 0 268 0.00159 
4863 1 0.00460982 0.0776368 -0.0309401 0 0 0 -0.1923 0.00581266 -1.05826 0 -8.25884e-05 0 0 0 0 0 0 0 0 0 0 0 0 0 0 0 0 0 1 0.00159 
4793 4 0.00784737 0.07747 -0.0307314 0 0 0 -0.723527 -0.581626 -0.361588 -0.0029151 0.000798276 0.0108538 0 0 1 0 0 0 0 0 0 0 0 0 0 0 0 0 7 0.00159 
1383 6 0.0137719 0.0764333 -0.0303161 0 0 0 0.531916 -0.805037 0.00543429 -0.000305068 -0.004312 0.0288867 0 0 1 0 0 0 0 0 0 0 0 0 0 0 0 0 257 0.00159 
1541 9 0.0113155 0.0783324 -0.0312369 0 0 0 -0.36298 -0.971827 -0.446604 0.0397344 -0.0342727 0.0408037 0 0 1 0 0 0 0 0 0 0 0 0 0 0 0 0 306 0.00159 
2591 5 0.00492134 0.0807879 -0.0304931 0 0 0 -0.387615 -0.0524669 -0.166698 0.0162436 -0.0102719 0.0113974 0 0 0 0 1 0 0 0 0 0 0 0 0 0 0 0 179 0.00159 
4246 3 0.00256977 0.0828765 -0.0308076 0 0 0 0.0757683 0.229123 0.274555 -0.00114933 -0.00246592 -0.00892349 0 1 1 0 1 0 0 0 0 0 0 0 0 0 0 0 7 0.00159 
130 9 0.007988 0.0813051 -0.0311679 0 0 0 -0.177257 -0.496914 -0.0933341 -0.00106046 0.000392977 -0.000775847 0 0 0 1 0 0 0 0 1 0 0 0 0 0 0 0 299 0.00159 
2282 10 0.0106287 0.0826221 -0.0299998 0 0 0 -0.290732 -0.454456 0.259819 0.00141158 -0.000143037 9.56106e-06 0 0 0 0 0 0 0 0 1 1 0 0 0 0 0 0 203 0.00159 
442 2 0.0135166 0.0815345 -0.0307587 0 0 0 -0.215239 -0.00163509 -0.259073 -0.000158406 7.87188e-05 0.000113496 0 0 0 0 0 0 0 0 0 1 0 0 0 0 0 0 79 0.00159 
655 2 0.0187052 0.0828136 -0.030993 0 0 0 0.206782 -0.224103 -0.246585 -1.10855e-05 0.00236365 -0.00425287 1 1 0 0 0 0 0 0 0 0 0 0 0 0 0 0 298 0.00159 
1841 3 0.00522503 0.0845856 -0.0311996 0 0 0 0.102054 0.595098 0.115204 0.00186715 -0.0114503 0.0127458 0 0 0 0 0 0 0 0 0 0 1 0 0 0 0 0 260 0.00159 
4856 4 0.0159355 0.0852002 -0.0305574 0 0 0 -0.197161 0.0990157 0.296669 -0.00130739 -0.00744644 0.00241853 0 0 0 1 0 0 0 0 0 0 0 0 0 0 0 0 4 0.00159 
4785 1 0.00257625 0.0865502 -0.0305994 0 0 0 0.00387898 -0.0270348 0.0953844 0.00253625 -0.00711727 0.000724727 2 0 0 1 0 0 0 0 0 0 0 0 0 0 0 0 11 0.00159 
1069 9 0.00827711 0.0863649 -0.0307977 0 0 0 -0.230104 -0.0628531 0.0212711 0.00340308 0.00307132 -0.00314246 1 0 0 0 0 0 0 0 0 0 0 0 0 0 0 0 265 0.00159 
1627 2 0.0126831 0.0863679 -0.0314605 0 0 0 0.124439 -0.0748269 -0.176853 -0.00165194 0.00119092 -0.00189544 0 0 0 0 0 0 0 0 0 0 0 0 0 0 0 0 278 0.00159 
4520 11 0.00543148 0.0878953 -0.0306797 0 0 0 -0.00954416 0.0087147 0.0183934 0.00487732 -0.00397787 -0.00133662 1 0 0 0 0 0 0 0 0 0 2 0 0 0 0 0 48 0.00159 
4892 4 0.0167658 0.0882467 -0.0303526 0 0 0 0.00601179 0.180374 0.0790083 -0.00343912 -0.00466365 0.000268084 0 0 0 1 0 0 0 0 0 0 0 0 0 0 0 0 1 0.00159 
2851 8 0.00259874 0.0897121 -0.0307028 0 0 0 0.091656 0.032918 0.02049 0.00462327 -0.00287032 0.000729455 2 0 0 0 0 0 0 1 0 0 0 0 0 0 0 0 169 0.00159 
4807 11 0.00791667 0.0897773 -0.0312228 0 0 0 0.148256 -0.152454 0.00381381 0.00346158 -0.000333241 -0.00175636 1 0 0 0 0 0 0 0 0 0 1 0 0 0 0 0 7 0.00159 
3472 6 0.0109767 0.0892249 -0.0304412 0 0 0 0.0982973 -0.194334 0.278537 0 -8.25884e-05 0 0 0 0 0 0 0 0 0 0 0 0 0 0 0 0 0 128 0.00159 
1231 3 0.0136074 0.0910107 -0.0305062 0 0 0 0.0838522 -0.0274468 -0.149599 0.00421817 -0.0023684 0.00133049 0 0 2 0 0 0 0 0 0 0 0 0 0 0 0 0 277 0.00159 
4479 1 0.0181892 0.0909884 -0.0310144 0 0 0 0.146762 0.184801 -0.0614323 0.00148545 0.00332028 -0.00491743 1 0 0 1 0 0 0 0 0 0 0 0 0 0 0 0 70 0.00159 
4193 4 0.00258601 0.0928673 -0.030505 0 0 0 0.0313184 0.0801579 0.0295121 -0.000364661 -0.000650684 0.00019336 0 0 0 1 0 0 0 1 0 0 0 0 0 0 0 0 80 0.00159 
571 6 0.0058251 0.092724 -0.0307014 0 0 0 0.00618232 -0.0287446 0.01896 -0.00115434 0.00283893 0.00317503 0 2 0 0 0 1 0 0 0 0 0 0 0 0 0 0 295 0.00159 
1490 3 0.0109222 0.0926559 -0.0308715 0 0 0 0.174518 0.0479689 0.0146512 -0.00446279 -0.000378079 -0.000596039 0 0 1 1 0 0 0 0 0 0 0 0 0 0 0 0 225 0.00159 
2567 1 0.0155957 0.0934834 -0.0305671 0 0 0 0.131445 -0.0727209 0.0136283 0.00194565 -0.000235888 -0.00190331 0 0 1 0 0 0 0 0 0 0 0 0 0 0 0 0 182 0.00159 
2308 8 0.00259154 0.0960298 -0.0305164 0 0 0 -0.0236772 0.079267 0.0182117 5.75502e-05 -0.000602291 0.00143249 0 0 0 2 0 0 0 1 0 0 0 0 0 0 0 0 240 0.00159 
3545 4 0.00805888 0.0950603 -0.0306454 0 0 0 0.159913 -0.0922724 0.0691713 0 -8.25884e-05 0 0 0 0 0 0 0 0 0 0 0 0 0 0 0 0 0 123 0.00159 
2063 3 0.0128055 0.0952412 -0.0309472 0 0 0 0.109684 -0.156845 -0.0758319 0.000907814 -5.43268e-05 -0.00175101 0 0 2 0 1 0 0 0 0 0 0 0 0 0 0 0 206 0.00159 
3402 1 0.0185226 0.0947133 -0.0307136 0 0 0 0.14575 -0.089191 0.133625 0.000276534 0.000223072 -0.000236147 0 0 0 0 0 0 0 0 0 0 0 0 0 0 0 0 163 0.00159 
1650 9 0.0156192 0.0966801 -0.030736 0 0 0 0.0946381 -0.0812218 -0.0192383 0.00198631 0.000518354 -0.00178427 0 0 1 0 0 0 0 0 2 0 0 0 0 0 0 0 242 0.00159 
89 4 0.0185432 0.097904 -0.0307386 0 0 0 0.114509 -0.0454393 0.109604 -0.00191028 0.00115734 0.000591623 0 0 0 5 0 0 0 0 1 0 0 0 0 0 0 0 278 0.00159 
3104 11 0.00259122 0.0991894 -0.0306717 0 0 0 0.00905827 0.0556152 -0.0169332 -0.00148237 -1.92861e-05 0.000751155 0 0 0 0 1 0 0 2 0 0 2 0 0 0 0 0 165 0.00159 
3145 2 0.00570892 0.0991538 -0.0300557 0 0 0 0.00925491 -0.0376968 0.037225 -0.00258907 0.000418247 0.000442849 0 1 0 1 0 0 0 0 0 0 1 0 0 0 0 0 236 0.00159 
4746 10 0.00871258 0.0982085 -0.0305619 0 0 0 -0.0106597 -0.00941703 -0.0558418 0.000224413 -0.00106363 0.00172729 0 0 1 0 0 0 0 0 0 1 0 0 0 0 0 0 29 0.00159 
1514 9 0.0126154 0.0984108 -0.0308155 0 0 0 0.0896635 -0.17932 -0.0536351 0.00184757 -0.00267148 0.002804 0 0 1 0 1 0 1 0 2 0 0 0 0 0 0 0 269 0.00159 
2981 1 0.0154491 0.0998461 -0.030946 0 0 0 0.0554159 -0.0112526 0.0148193 -0.00097419 -0.00189878 0.000180596 1 1 0 0 0 0 0 0 2 0 0 0 0 0 0 0 211 0.00159 
4410 5 0.00771465 0.101684 -0.0308453 0 0 0 -0.00601249 -0.0719546 -0.00923928 -0.0036118 -0.0024134 -0.000874971 0 1 0 0 1 1 0 0 0 0 0 0 0 0 0 0 78 0.00159 
2641 1 0.010597 0.100696 -0.0298904 0 0 0 0.131069 -0.0417866 0.0810374 -0.000372152 0.000630436 -0.00116036 1 0 0 0 0 0 0 0 0 0 0 0 0 0 0 0 228 0.00159 
3742 2 0.0183749 0.101071 -0.0308015 0 0 0 0.109973 -0.0734419 -0.00105319 -0.00168333 -0.000774345 0.000532367 1 2 1 1 0 0 0 0 0 0 0 0 0 0 0 0 129 0.00159 
2433 2 0.00474171 0.102171 -0.0298518 0 0 0 0.0250985 -0.0248557 0.0236224 -0.00243981 5.54621e-05 -0.0014586 0 2 1 0 1 0 0 0 0 0 0 0 0 0 0 0 226 0.00159 
2129 3 0.0140382 0.102692 -0.0303725 0 0 0 -0.0288519 -0.014422 0.00902994 -0.000225291 -0.000349511 -8.60773e-05 0 0 1 0 0 1 0 0 0 0 0 0 0 0 0 0 234 0.00159 
4089 5 0.00681096 0.104538 -0.0294969 0 0 0 0.0268037 0.00609207 0.0177592 -0.000174069 -0.000106281 -0.00295649 0 1 0 0 3 0 0 0 0 0 0 0 0 0 0 0 131 0.00159 
4394 2 0.00987213 0.103818 -0.0298743 0 0 0 0.043655 -0.0570703 0.0377411 0.0003849 -0.00189634 0.00029677 0 3 0 1 1 0 0 0 0 0 0 0 0 0 0 0 91 0.00159 
3617 1 0.0182321 0.104266 -0.0307264 0 0 0 0.0539402 -0.0454642 0.0325326 -0.00284996 -0.00275879 -0.000669963 3 0 1 0 0 0 0 0 0 0 0 0 0 0 0 0 139 0.00159 
1162 5 0.00279898 0.105624 -0.0294544 0 0 0 0.0338878 0.0257257 -0.0582499 -0.000109128 8.53879e-05 0.000416676 0 0 1 0 0 0 0 0 0 0 0 0 0 0 0 0 220 0.00159 
4302 5 0.00548607 0.107248 -0.0305148 0 0 0 0.0483887 0.00247927 0.0100797 -0.000529285 -0.00132963 -0.00162829 0 0 0 0 2 0 0 0 0 0 0 0 0 1 0 0 119 0.00159 
663 6 0.00876085 0.106644 -0.0308449 0 0 0 0.044216 0.0334815 0.0376854 -0.00041856 -0.00096896 -0.000419282 0 0 1 0 1 1 0 0 1 0 0 0 0 0 0 0 367 0.00159 
2704 6 0.0122052 0.10579 -0.0307207 0 0 0 0.0556075 -0.0355547 0.0317282 0.000460799 -0.000710324 0.000671536 0 1 0 0 0 1 0 0 0 0 0 0 0 0 0 0 175 0.00159 
2511 8 0.0153701 0.105581 -0.0301739 0 0 0 0.0696504 -0.00842169 -0.0203376 0 -8.25884e-05 0 0 0 0 0 0 0 0 0 0 0 0 0 0 0 0 0 225 0.00159 