ITEM: TIMESTEP
20000000
ITEM: NUMBER OF ATOMS
8751
ITEM: BOX BOUNDS ff ff ff
-0.01 0.45
-0.15 0.15
-0.08 0.1
ITEM: ATOMS id type x y z ix iy iz vx vy vz fx fy fz c_cc_1 c_cc_2 c_cc_3 c_cc_4 c_cc_5 c_cc_6 c_cc_7 c_cc_8 c_cc_9 c_cc_10 c_cc_11 c_cc_12 c_cc_13 c_cc_14 c_cc_15 c_cc_16 f_fppacc radius 
1565 1 0.0183158 -0.00841347 -0.0602204 0 0 0 3.09761e-07 -5.69112e-13 -6.14169e-12 -8.74456e-20 0 0 0 0 0 0 0 0 0 0 0 0 0 0 0 0 0 0 1 0.00126 
1441 2 0.0133646 -0.0135806 -0.0592865 0 0 0 3.56931e-06 -3.47817e-14 -1.22241e-13 -4.39665e-17 -5.55112e-17 -2.22045e-16 0 0 0 0 0 0 0 0 0 0 0 0 0 0 0 0 118 0.00126 
1228 3 0.0129091 -0.0093038 -0.0601379 0 0 0 6.17559e-07 1.80092e-13 1.94353e-12 -9.50938e-20 0 0 0 0 0 0 0 0 0 0 0 0 0 0 0 0 0 0 197 0.00126 
3209 7 0.015508 -0.0197536 -0.0575301 0 0 0 -5.12309e-07 1.68881e-12 5.93555e-12 3.63379e-22 0 0 0 0 0 0 0 0 0 0 0 0 0 0 0 0 0 0 118 0.00126 
544 5 0.00276544 -0.021699 -0.0570275 0 0 0 -3.8656e-06 2.96152e-15 1.24552e-14 -1.28146e-07 0 0 0 0 0 0 0 0 0 0 0 0 0 0 0 0 0 0 14 0.00126 
6083 14 0.00698411 -0.0216687 -0.0569642 0 0 0 -0.0154834 -4.65363e-13 -3.39514e-12 8.46039e-15 8.32667e-17 0 0 0 0 0 0 0 0 0 0 0 0 0 0 0 0 0 113 0.00126 
5312 1 0.0123404 -0.00276469 -0.0542725 0 0 0 0.121752 -7.28673 -2.96985 0 -4.10998e-05 0 0 0 0 0 0 0 0 0 0 0 0 0 0 0 0 0 194 0.00126 
1683 10 0.00231647 -0.0103228 -0.0566675 0 0 0 0.095731 -11.6415 0.360038 0 -4.10998e-05 0 0 0 0 0 0 0 0 0 0 0 0 0 0 0 0 0 308 0.00126 
7813 2 0.00342465 -0.00446612 -0.0559106 0 0 0 0.849382 -3.73151 -2.93769 0 -4.10998e-05 0 0 0 0 0 0 0 0 0 0 0 0 0 0 0 0 0 96 0.00126 
2303 7 0.0162663 -0.029896 -0.0529668 0 0 0 -1.5193e-07 3.43927e-13 6.90694e-13 9.40136e-20 0 0 0 0 0 0 0 0 0 0 0 0 0 0 0 0 0 0 201 0.00126 
8321 3 0.00957815 -0.0173383 -0.053236 0 0 0 2.42511 3.8333 0.993722 0 -4.10998e-05 0 0 0 0 0 0 0 0 0 0 0 0 0 0 0 0 0 78 0.00126 
5359 6 0.016078 -0.0324564 -0.0515782 0 0 0 1.13218e-05 -3.09739e-15 -5.01538e-15 9.67409e-07 2.22045e-16 2.22045e-16 0 0 0 0 0 0 0 0 0 0 0 0 0 0 0 0 139 0.00126 
6289 4 0.00289625 -0.0317865 -0.0520769 0 0 0 -2.93805e-18 -6.40232e-15 -1.48373e-14 -5.04848e-19 0 0 0 0 0 0 0 0 0 0 0 0 0 0 0 0 0 0 0 0.00126 
7706 3 0.00531522 -0.0120156 -0.0535395 0 0 0 0.0831666 -8.23998 -7.27215 0 -4.10998e-05 0 0 0 0 0 0 0 0 0 0 0 0 0 0 0 0 0 116 0.00126 
9734 2 0.00784134 -0.0298243 -0.0468213 0 0 0 -2.07498 -17.3048 -6.25706 0 -4.10998e-05 0 0 0 0 0 0 0 0 0 0 0 0 0 0 0 0 0 1 0.00126 
5866 5 0.00783657 -0.00868577 -0.0416716 0 0 0 2.84575 3.29929 4.21683 0 -4.10998e-05 0 0 0 0 0 0 0 0 0 0 0 0 0 0 0 0 0 180 0.00126 
1038 9 0.00683088 -0.0194427 -0.0394464 0 0 0 3.08499 5.50427 2.6388 0 -4.10998e-05 0 0 0 0 0 0 0 0 0 0 0 0 0 0 0 0 0 294 0.00126 
3222 9 0.0182205 -0.00571929 -0.0407788 0 0 0 0.927545 -0.0147307 1.09858 0 -4.10998e-05 0 0 0 0 0 0 0 0 0 0 0 0 0 0 0 0 0 263 0.00126 
6404 14 0.00247813 -0.0233906 -0.0372297 0 0 0 -0.00833899 -2.06841 -0.346486 0 -4.10998e-05 0 0 0 0 0 0 0 0 0 0 0 0 0 0 0 0 0 150 0.00126 
7508 3 0.0146708 -0.0446712 -0.0327228 0 0 0 2.86723 -10.209 5.15604 0 -4.10998e-05 0 0 0 0 0 0 0 0 0 0 0 0 0 0 0 0 0 118 0.00126 
4300 3 0.00721558 -0.0279398 -0.0347122 0 0 0 0.154621 -2.01007 1.23683 0 -4.10998e-05 0 0 0 0 0 0 0 0 0 0 0 0 0 0 0 0 0 208 0.00126 
3191 5 0.0119806 -0.0447289 -0.0197278 0 0 0 -0.956094 -4.71798 8.726 0 -4.10998e-05 0 0 0 0 0 0 0 0 0 0 0 0 0 0 0 0 0 315 0.00126 
9619 4 0.0145132 -0.0356412 -0.0228695 0 0 0 1.14764 -5.65231 3.80476 0 -4.10998e-05 0 0 0 0 0 0 0 0 0 0 0 0 0 0 0 0 0 1 0.00126 
8524 5 0.0164025 -0.0506731 -0.0218156 0 0 0 1.60028 -2.74143 3.17074 0 -4.10998e-05 0 0 0 0 0 0 0 0 0 0 0 0 0 0 0 0 0 87 0.00126 
1929 8 0.0173069 -0.0586371 -0.0165813 0 0 0 0.00106764 -4.91798e-13 -1.13571e-13 7.33383e-06 8.88178e-16 1.66533e-16 0 0 0 0 0 0 0 0 0 0 0 0 0 0 0 0 30 0.00126 
3800 3 0.0026218 -0.055886 -0.0123004 0 0 0 -0.569033 -0.953009 4.70673 0 -4.10998e-05 0 0 0 0 0 0 0 0 0 0 0 0 0 0 0 0 0 203 0.00126 
9944 1 0.0123096 -0.0584366 -0.00135307 0 0 0 7.11475 -5.99799 15.8834 0 -4.10998e-05 0 0 0 0 0 0 0 0 0 0 0 0 0 0 0 0 0 0 0.00126 
7660 2 0.0111831 -0.0525042 -0.00107961 0 0 0 3.66871 1.09062 14.4273 0 -4.10998e-05 0 0 0 0 0 0 0 0 0 0 0 0 0 0 0 0 0 98 0.00126 
3932 4 0.0157378 -0.0582391 0.00577867 0 0 0 0.916821 -3.22238 8.76298 0 -4.10998e-05 0 0 0 0 0 0 0 0 0 0 0 0 0 0 0 0 0 225 0.00126 
9879 2 0.0181529 -0.0416781 -0.0413517 0 0 0 -18.0016 -36.7768 43.0403 0.142935 0.567123 0.478434 0 0 0 0 0 0 0 0 0 0 0 0 0 0 0 0 0 0.00126 
253 12 0.0180903 -0.0591916 0.0139104 0 0 0 -5.63363e-08 -5.08829e-12 9.51168e-13 -1.56505e-20 0 0 0 0 0 0 0 0 0 0 0 0 0 0 0 0 0 0 11 0.00126 
1344 5 0.0049734 -0.0440065 0.0160909 0 0 0 5.77753 9.67556 5.73411 0 -4.10998e-05 0 0 0 0 0 0 0 0 0 0 0 0 0 0 0 0 0 255 0.00126 
7380 5 0.018039 -0.0506054 0.026361 0 0 0 -0.829862 4.68322 15.6852 0 -4.10998e-05 0 0 0 0 0 0 0 0 0 0 0 0 0 0 0 0 0 156 0.00126 
3491 2 0.0160439 -0.0554826 0.0249247 0 0 0 -4.00573e-07 -5.00945e-12 1.94067e-12 2.22929e-17 0 0 0 0 0 0 0 0 0 0 0 0 0 0 0 0 0 0 157 0.00126 
6343 9 0.00515687 -0.050653 0.0293196 0 0 0 0.0682306 6.39951 8.99611 -0.00146521 -0.00559472 0.00864378 0 0 0 0 0 0 0 0 0 0 0 0 0 0 0 0 170 0.00126 
5546 6 0.0060154 -0.0464474 0.0347962 0 0 0 2.85551 5.2765 13.4765 0 -4.10998e-05 0 0 0 0 0 0 0 0 0 0 0 0 0 0 0 0 0 187 0.00126 
17 1 0.0110233 -0.00176445 0.0608365 0 0 0 2.61151e-06 -2.0296e-13 2.19029e-12 1.76362e-19 -2.77556e-17 2.22045e-16 0 0 0 0 0 0 0 0 0 0 0 0 0 0 0 0 2 0.00126 
6066 5 0.0171447 -0.0346959 0.0499122 0 0 0 -1.21761e-06 1.2824e-12 -1.69817e-12 -2.14167e-17 -2.22045e-16 2.22045e-16 0 0 0 0 0 0 0 0 0 0 0 0 0 0 0 0 0 0.00126 
8212 1 0.00307606 -0.0466113 0.0347992 0 0 0 0.184372 7.94409 11.2702 0 -4.10998e-05 0 0 0 0 0 0 0 0 0 0 0 0 0 0 0 0 0 53 0.00126 
788 8 0.0126718 -0.0496751 0.035152 0 0 0 7.85557e-07 -2.44321e-12 1.50364e-12 -9.50364e-15 5.55112e-15 8.43769e-15 0 0 0 0 0 0 0 0 0 0 0 0 0 0 0 0 84 0.00126 
2405 3 0.00400648 -0.0489961 0.0363055 0 0 0 2.02901e-30 -4.80145e-15 2.84466e-15 0 0 0 0 0 0 0 0 0 0 0 0 0 0 0 0 0 0 0 14 0.00126 
9591 5 0.00306499 -0.00999062 0.0422006 0 0 0 -5.99912 32.7479 4.82363 0 -4.10998e-05 0 0 0 0 0 0 0 0 0 0 0 0 0 0 0 0 0 0 0.00126 
6324 4 0.00290836 -0.0224524 0.0513316 0 0 0 3.11678 16.5786 8.79912 0 -4.10998e-05 0 0 0 0 0 0 0 0 0 0 0 0 0 0 0 0 0 240 0.00126 
6376 1 0.00922126 0.0113129 -0.0599316 0 0 0 -0.0170433 -2.42317e-13 8.32378e-13 2.50778e-17 0 0 0 0 0 0 0 0 0 0 0 0 0 0 0 0 0 0 1 0.00126 
110 4 0.0115245 0.0130571 -0.0594354 0 0 0 -1.53284e-06 -5.57381e-13 1.95898e-12 -9.84568e-18 5.55112e-17 -2.22045e-16 0 0 0 0 0 0 0 0 0 0 0 0 0 0 0 0 199 0.00126 
2108 1 0.0160717 0.0137455 -0.0592396 0 0 0 -3.40277e-06 -1.56069e-13 5.48523e-13 2.18088e-17 -5.55112e-17 2.22045e-16 0 0 0 0 0 0 0 0 0 0 0 0 0 0 0 0 143 0.00126 
59 3 0.0114441 0.0201245 -0.0574246 0 0 0 -5.93246e-06 -1.09066e-12 3.83325e-12 -4.75649e-17 0 0 0 0 0 0 0 0 0 0 0 0 0 0 0 0 0 0 264 0.00126 
16 8 0.0143641 0.0206677 -0.0572701 0 0 0 -3.15162e-06 -8.31504e-13 2.92242e-12 -2.18529e-17 0 0 0 0 0 0 0 0 0 0 0 0 0 0 0 0 0 0 264 0.00126 
5063 7 0.0102412 0.023401 -0.056201 0 0 0 5.37483e-06 2.90026e-13 -5.82458e-13 -8.64763e-17 0 -2.22045e-16 0 0 0 0 0 0 0 0 0 0 0 0 0 0 0 0 0 0.00126 
4831 4 0.00554361 0.0172726 -0.0555735 0 0 0 0.743897 -1.74252 -0.259257 0 -4.10998e-05 0 0 0 0 0 0 0 0 0 0 0 0 0 0 0 0 0 212 0.00126 
9571 3 0.012922 0.0164357 -0.0527564 0 0 0 -0.838691 -0.841063 4.76695 0 -4.10998e-05 0 0 0 0 0 0 0 0 0 0 0 0 0 0 0 0 0 0 0.00126 
6724 3 0.0173085 0.0601748 0.0077454 0 0 0 7.13983 8.98985 -9.56087 0 -4.10998e-05 0 0 0 0 0 0 0 0 0 0 0 0 0 0 0 0 0 148 0.00126 
4052 4 0.0112329 0.0134132 -0.055951 0 0 0 0.90805 -4.45586 -3.83092 0 -4.10998e-05 0 0 0 0 0 0 0 0 0 0 0 0 0 0 0 0 0 291 0.00126 
703 6 0.0153223 0.028882 -0.0534718 0 0 0 -1.61582e-06 -4.8448e-06 -7.64758e-07 -2.71487e-07 8.3526e-07 2.01008e-06 0 0 0 0 0 0 0 0 0 0 0 0 0 0 0 0 165 0.00126 
7845 4 0.0171314 0.0277589 -0.0503692 0 0 0 1.6127 -0.440652 2.2437 0 -4.10998e-05 0 0 0 0 0 0 0 0 0 0 0 0 0 0 0 0 0 112 0.00126 
587 2 0.015574 0.0312173 -0.0523077 0 0 0 -2.1613e-16 -8.64838e-17 5.94124e-16 0 0 0 0 1 0 0 0 0 0 0 0 0 0 0 0 0 0 0 277 0.00126 
7280 5 0.0179456 0.0315963 -0.052114 0 0 0 6.47199e-16 -6.4667e-17 -1.78759e-16 0 0 0 0 1 0 0 0 0 0 0 0 0 0 0 0 0 0 0 170 0.00126 
9338 1 0.0186112 0.00613522 -0.0506303 0 0 0 0.351277 -3.21445 -1.67316 0 -4.10998e-05 0 0 0 0 0 0 0 0 0 0 0 0 0 0 0 0 0 39 0.00126 
6467 6 0.0175245 0.0176059 -0.0513264 0 0 0 1.35248 -1.97814 -1.54993 0 -4.10998e-05 0 0 0 0 0 0 0 0 0 0 0 0 0 0 0 0 0 182 0.00126 
1347 1 0.0123079 0.0207842 -0.0519914 0 0 0 1.83967 0.873884 -3.10182 0 -4.10998e-05 0 0 0 0 0 0 0 0 0 0 0 0 0 0 0 0 0 220 0.00126 
6808 1 0.00934385 0.00856459 -0.0500228 0 0 0 0.737666 -2.72941 -1.79123 0 -4.10998e-05 0 0 0 0 0 0 0 0 0 0 0 0 0 0 0 0 0 136 0.00126 
8733 7 0.0028749 0.0264226 -0.0499023 0 0 0 -0.51266 -2.63543 -1.75811 0 -4.10998e-05 0 0 0 0 0 0 0 0 0 0 0 0 0 0 0 0 0 80 0.00126 
6021 5 0.00838298 0.0282245 -0.0495885 0 0 0 0.526216 -1.73766 -1.93384 0 -4.10998e-05 0 0 0 0 0 0 0 0 0 0 0 0 0 0 0 0 0 169 0.00126 
631 7 0.002734 0.0332232 -0.0468749 0 0 0 0.374229 -1.11908 -0.551306 0 -4.10998e-05 0 0 0 0 0 0 0 0 0 0 0 0 0 0 0 0 0 297 0.00126 
1179 13 0.0118249 0.0328784 -0.048259 0 0 0 -0.273917 -2.04638 -1.73971 0 -4.10998e-05 0 0 0 0 0 0 0 0 0 0 0 0 0 0 0 0 0 340 0.00126 
3058 4 0.0179743 0.0397407 -0.046103 0 0 0 -2.6731e-12 -7.10147e-13 1.38714e-12 -2.83849e-13 4.8006e-13 -6.27276e-13 0 0 0 1 0 0 0 0 0 0 0 0 0 0 0 0 39 0.00126 
6561 5 0.00247319 0.0231131 -0.0439629 0 0 0 -0.587176 -2.02894 -0.91856 0 -4.10998e-05 0 0 0 0 0 0 0 0 0 0 0 0 0 0 0 0 0 183 0.00126 
330 8 0.00863117 0.0419614 -0.0441296 0 0 0 -1.16387e-06 -2.29027e-12 2.08785e-12 -4.37092e-17 0 0 0 0 0 0 0 0 0 0 0 0 0 0 0 0 0 0 159 0.00126 
8658 11 0.0114471 0.0423473 -0.0437064 0 0 0 -8.23403e-07 2.33861e-12 -2.13193e-12 -4.46546e-17 0 0 0 0 0 0 0 0 0 0 0 0 0 0 0 0 0 0 25 0.00126 
4895 8 0.0178792 0.0143233 -0.0421138 0 0 0 1.44526 -0.253636 0.730132 0 -4.10998e-05 0 0 0 0 0 0 0 0 0 0 0 0 0 0 0 0 0 256 0.00126 
6392 7 0.00606428 0.0184443 -0.0462402 0 0 0 -1.56702 -4.02084 -5.70715 0 -4.10998e-05 0 0 0 0 0 0 0 0 0 0 0 0 0 0 0 0 0 156 0.00126 
9833 15 0.00958759 0.0320438 -0.0427153 0 0 0 1.58239 -2.65558 -0.687034 0 -4.10998e-05 0 0 0 0 0 0 0 0 0 0 0 0 0 0 0 0 0 2 0.00126 
6622 4 0.00321862 0.00909911 -0.0494513 0 0 0 0.99546 -9.57875 -16.48 0 -4.10998e-05 0 0 0 0 0 0 0 0 0 0 0 0 0 0 0 0 0 229 0.00126 
3806 4 0.0139453 0.0233479 -0.0467233 0 0 0 -2.71649 -10.5202 -12.9439 0 -4.10998e-05 0 0 0 0 0 0 0 0 0 0 0 0 0 0 0 0 0 280 0.00126 
4473 8 0.00712418 0.0259076 -0.0382652 0 0 0 0.47597 -1.51282 -0.340873 0 -4.10998e-05 0 0 0 0 0 0 0 0 0 0 0 0 0 0 0 0 0 288 0.00126 
3174 6 0.00821197 0.0323327 -0.0388854 0 0 0 -0.0780749 -1.52302 -0.577293 0 -4.10998e-05 0 0 0 0 0 0 0 0 0 0 0 0 0 0 0 0 0 273 0.00126 
7494 2 0.00224086 0.0337526 -0.0377837 0 0 0 -0.183285 -1.37022 -0.347175 0.0426239 0.0212595 0.000693919 0 0 0 0 0 0 0 0 0 0 0 0 0 0 0 0 103 0.00126 
7353 4 0.00446234 0.0350367 -0.0381948 0 0 0 0.200596 -1.96249 -0.536175 0 -4.10998e-05 0 0 0 0 0 0 0 0 0 0 0 0 0 0 0 0 0 75 0.00126 
9285 4 0.00761931 0.0396668 -0.0393105 0 0 0 -1.5329 -3.13213 -2.3158 0 -4.10998e-05 0 0 0 0 0 0 0 0 0 0 0 0 0 0 0 0 0 43 0.00126 
6666 1 0.00440696 0.0201531 -0.0360225 0 0 0 0.105374 -1.07408 -0.0883935 0 -4.10998e-05 0 0 0 0 0 0 0 0 0 0 0 0 0 0 0 0 0 105 0.00126 
1504 14 0.00628493 0.039626 -0.0371253 0 0 0 -0.518777 -1.09272 -0.675322 0 -4.10998e-05 0 0 0 0 0 0 0 0 0 0 0 0 0 0 0 0 0 331 0.00126 
1687 5 0.0182081 0.0487934 -0.0367021 0 0 0 -0.000613963 -2.52631e-14 1.80836e-14 6.27248e-06 0 0 0 0 0 0 0 0 0 0 0 0 0 0 0 0 0 0 87 0.00126 
3272 10 0.00405115 0.0380599 -0.03608 0 0 0 -0.500461 0.322288 -1.49005 0 -4.10998e-05 0 0 0 0 0 0 0 0 0 0 0 0 0 0 0 0 0 331 0.00126 
1322 3 0.00821872 0.0402913 -0.0344382 0 0 0 -0.194716 -1.0024 -0.100846 0 -4.10998e-05 0 0 0 0 0 0 0 0 0 0 0 0 0 0 0 0 0 320 0.00126 
256 1 0.0124571 0.0512347 -0.0355 0 0 0 -5.71971e-46 4.10113e-20 6.74649e-12 -4.23977e-46 0 1.77636e-15 0 0 0 0 0 0 0 0 0 0 0 0 0 0 0 0 3 0.00126 
5967 1 0.0169645 0.0526041 -0.0355001 0 0 0 3.93978e-13 -2.62143e-13 9.26405e-13 -5.20209e-14 3.83513e-14 0 1 0 0 0 0 0 0 0 0 0 0 0 0 0 0 0 95 0.00126 
261 5 0.0100322 0.0540105 -0.0355 0 0 0 -1.10692e-121 -9.39599e-20 -6.74649e-12 2.78556e-122 0 1.77636e-15 0 0 0 0 0 0 0 0 0 0 0 0 0 0 0 0 2 0.00126 
7730 3 0.0128374 0.0537963 -0.0355 0 0 0 3.00073e-47 -2.01997e-19 -6.7466e-12 -1.38614e-47 0 -1.77636e-15 0 0 0 0 0 0 0 0 0 0 0 0 0 0 0 0 83 0.00126 
161 4 0.0152599 0.0550615 -0.0355 0 0 0 2.33092e-45 3.97439e-20 8.34134e-13 -9.49552e-46 0 -1.77636e-15 0 0 0 0 0 0 0 0 0 0 0 0 0 0 0 0 2 0.00126 
8341 7 0.0183655 0.0545939 -0.0355009 0 0 0 -8.11472e-13 1.39912e-13 9.27269e-13 1.10995e-13 -1.69725e-14 0 1 0 0 0 0 0 0 0 0 0 0 0 0 0 0 0 67 0.00126 
996 2 0.00986845 0.0566796 -0.0355006 0 0 0 -1.72811e-08 -1.97349e-08 -5.9423e-11 5.14994e-10 7.15932e-10 -5.00933e-13 0 1 0 0 0 0 0 0 0 0 0 0 0 0 0 0 347 0.00126 
2511 7 0.0176296 0.056835 -0.035499 0 0 0 4.17581e-13 1.22192e-13 9.2775e-13 -5.90361e-14 -2.1344e-14 0 0 0 0 0 0 0 0 0 0 0 0 0 0 0 0 0 2 0.00126 
731 4 0.00820267 0.0584167 -0.0355126 0 0 0 3.40547e-08 -5.06509e-09 -1.37797e-10 -1.19567e-09 3.01604e-10 -1.59162e-12 0 1 0 1 0 0 0 0 0 0 0 0 0 0 0 0 686 0.00126 
244 2 0.00972682 0.0597419 -0.0354868 0 0 0 -1.67735e-08 2.48009e-08 1.97088e-10 6.80658e-10 -1.01753e-09 1.83675e-12 0 0 0 1 0 0 0 0 0 0 0 0 0 0 0 0 347 0.00126 
732 5 0.00839772 0.0626992 -0.0355 0 0 0 -3.32508e-15 3.27388e-17 -2.52923e-12 9.25436e-17 2.97376e-17 1.77636e-15 0 0 0 0 0 0 0 0 0 0 0 0 0 0 0 0 4 0.00126 
3896 1 0.0114379 0.0617493 -0.0355 0 0 0 1.50118e-09 -1.59613e-09 -8.24896e-10 9.65291e-10 -8.80243e-10 8.32785e-10 0 0 0 0 0 0 0 0 0 0 0 0 0 0 0 0 102 0.00126 
6248 7 0.0151439 0.0614847 -0.0355 0 0 0 2.45497e-55 -9.48953e-20 4.21089e-12 -6.70622e-56 0 0 0 0 0 0 0 0 0 0 0 0 0 0 0 0 0 0 1 0.00126 
755 3 0.0127903 0.0640838 -0.0355 0 0 0 2.51786e-12 9.20338e-16 6.24606e-12 3.80226e-13 -1.64567e-13 -9.05942e-14 0 0 0 0 0 0 0 0 0 0 0 0 0 0 0 0 4 0.00126 
424 2 0.00633438 0.0647923 -0.0355 0 0 0 1.20743e-05 3.30598e-06 1.61381e-05 4.68319e-06 2.01662e-06 -1.83133e-06 0 0 0 0 0 0 0 0 0 0 0 0 0 0 0 0 6 0.00126 
1834 4 0.0171412 0.0665917 -0.0355 0 0 0 1.19311e-70 -1.34556e-19 -2.52919e-12 -1.45983e-70 0 1.77636e-15 0 0 0 0 0 0 0 0 0 0 0 0 0 0 0 0 55 0.00126 
6085 3 0.00434003 0.0674247 -0.0355 0 0 0 1.69438e-26 -1.21804e-19 -8.34064e-13 -2.02175e-26 0 1.77636e-15 0 0 0 0 0 0 0 0 0 0 0 0 0 0 0 0 6 0.00126 
467 2 0.00681254 0.0687997 -0.0355 0 0 0 1.79166e-82 -2.71528e-20 4.21115e-12 -1.70781e-82 0 0 0 0 0 0 0 0 0 0 0 0 0 0 0 0 0 0 16 0.00126 
7636 4 0.0151422 0.0700371 -0.0355 0 0 0 -5.04483e-28 6.71539e-20 -8.34162e-13 5.26412e-28 0 -1.77636e-15 0 0 0 0 0 0 0 0 0 0 0 0 0 0 0 0 2 0.00126 
2462 5 0.018396 0.0703284 -0.0355 0 0 0 1.10687e-87 -8.15359e-20 -5.06495e-12 5.16728e-88 0 1.77636e-15 0 0 0 0 0 0 0 0 0 0 0 0 0 0 0 0 15 0.00126 
918 6 0.00516184 0.0709432 -0.0355 0 0 0 -0.000103274 -0.000673259 0.00184753 -0.000466407 0.00016158 -0.000203309 0 0 0 0 0 1 0 0 0 0 0 0 0 0 0 0 14 0.00126 
3410 6 0.00494174 0.0214593 -0.0337621 0 0 0 -0.197544 -1.74759 -0.524548 0 -4.10998e-05 0 0 0 0 0 0 0 0 0 0 0 0 0 0 0 0 0 264 0.00126 
1152 5 0.00254443 0.0292768 -0.0333399 0 0 0 0.682924 -0.591547 -0.473928 0 -4.10998e-05 0 0 0 0 0 0 0 0 0 0 0 0 0 0 0 0 0 322 0.00126 
1113 3 0.0093983 0.0362176 -0.033411 0 0 0 -0.0539723 -1.04625 -0.321285 0 -4.10998e-05 0 0 0 0 0 0 0 0 0 0 0 0 0 0 0 0 0 300 0.00126 
5548 3 0.0178529 0.042541 -0.0336951 0 0 0 0.815157 -2.9868 0.972752 0 -4.10998e-05 0 0 0 0 0 0 0 0 0 0 0 0 0 0 0 0 0 151 0.00126 
3027 2 0.00310893 0.0462341 -0.0336009 0 0 0 -0.451336 -0.694696 -0.435479 0 -4.10998e-05 0 0 0 0 0 0 0 0 0 0 0 0 0 0 0 0 0 256 0.00126 
9808 3 0.00271156 0.0495759 -0.0337113 0 0 0 -0.00766543 -0.520276 0.0475649 0 -4.10998e-05 0 0 0 0 0 0 0 0 0 0 0 0 0 0 0 0 0 3 0.00126 
9746 2 0.00815822 0.0499493 -0.0336597 0 0 0 -0.0587126 -0.67623 -0.0396381 -0.00319442 -0.0184361 -0.0123653 0 1 0 0 0 0 0 0 0 0 0 0 0 0 0 0 5 0.00126 
3830 3 0.00500126 0.0506436 -0.0334994 0 0 0 0.111384 -0.69454 -0.0297508 0 -4.10998e-05 0 0 0 0 0 0 0 0 0 0 0 0 0 0 0 0 0 208 0.00126 
7083 2 0.00240131 0.0530724 -0.0336839 0 0 0 -0.0136704 -0.805673 -0.126651 0.0011499 -1.83312e-05 0.000814769 0 1 0 0 0 0 0 0 0 0 0 0 0 0 0 0 146 0.00126 
1112 8 0.00419528 0.0547479 -0.0331365 0 0 0 -0.0546579 -0.552173 -0.035334 -0.0011499 -6.38683e-05 -0.000814769 0 1 0 0 0 0 0 0 0 0 0 0 0 0 0 0 210 0.00126 
9782 7 0.00687223 0.0549281 -0.0332108 0 0 0 -0.771907 -0.803802 0.213392 0 -4.10998e-05 0 0 0 0 0 0 0 0 0 0 0 0 0 0 0 0 0 0 0.00126 
9584 1 0.00225305 0.0564867 -0.0337386 0 0 0 -0.283533 -0.473591 0.0714488 0.0189967 0.00900703 0.0124365 1 0 0 0 0 0 0 0 0 0 0 0 0 0 0 0 2 0.00126 
5679 1 0.00456433 0.0576238 -0.0336879 0 0 0 -0.408289 -0.476357 0.00712007 0 -4.10998e-05 0 0 0 0 0 0 0 0 0 0 0 0 0 0 0 0 0 181 0.00126 
9707 4 0.00229293 0.0590886 -0.0336865 0 0 0 -0.176942 -0.414601 -0.0694288 0.000840729 0.000384194 0.000133909 0 0 0 1 0 0 0 0 0 0 0 0 0 0 0 0 6 0.00126 
125 7 0.00450924 0.0602374 -0.033347 0 0 0 -0.0904024 -0.308193 -0.20466 -0.000840729 -0.000466393 -0.000133909 0 0 0 1 0 0 0 0 0 0 0 0 0 0 0 0 226 0.00126 
7455 4 0.00693951 0.0615305 -0.0336895 0 0 0 0.242831 -0.477175 -0.0495173 0 -4.10998e-05 0 0 0 0 0 0 0 0 0 0 0 0 0 0 0 0 0 73 0.00126 
2476 5 0.0102225 0.0629904 -0.0333499 0 0 0 -0.143313 0.0725927 0.474636 0.000198378 -0.00553191 0.000660212 0 0 0 0 1 0 0 0 0 0 0 0 0 0 0 0 245 0.00126 
3533 2 0.0141638 0.0631814 -0.0329561 0 0 0 0.595545 1.27198 -0.368072 0 -4.10998e-05 0 0 0 0 0 0 0 0 0 0 0 0 0 0 0 0 0 223 0.00126 
760 12 0.00814613 0.0651928 -0.0336518 0 0 0 0.745421 -0.90827 0.203192 0 -4.10998e-05 0 0 0 0 0 0 0 0 0 0 0 0 0 0 0 0 0 307 0.00126 
9880 8 0.0112626 0.0652668 -0.0333747 0 0 0 0.297539 0.117585 0.186003 -0.000198378 0.00544971 -0.000660212 0 0 0 0 1 0 0 0 0 0 0 0 0 0 0 0 1 0.00126 
9025 1 0.00239777 0.0664356 -0.0328014 0 0 0 0.221747 -0.263058 0.432914 0 -4.10998e-05 0 0 0 0 0 0 0 0 0 0 0 0 0 0 0 0 0 50 0.00126 
4605 6 0.00487327 0.067562 -0.0326204 0 0 0 -0.00695333 -0.284648 0.239156 0 -4.10998e-05 0 0 0 0 0 0 0 0 0 0 0 0 0 0 0 0 0 196 0.00126 
8672 1 0.00960286 0.0673097 -0.0336531 0 0 0 0.25437 -0.458931 -0.122599 0.000898419 -0.00115936 -0.00141859 2 0 0 0 0 0 0 0 0 0 0 0 0 0 0 0 84 0.00126 
7413 3 0.0119918 0.0679975 -0.0332992 0 0 0 0.308858 -0.274185 0.147695 0.000975531 0.000283175 0.000708708 1 0 0 0 0 0 0 0 0 0 0 0 0 0 0 0 112 0.00126 
9835 3 0.0163211 0.0685537 -0.0332268 0 0 0 -0.55315 -0.319542 -0.00127342 0 -4.10998e-05 0 0 0 0 0 0 0 0 0 0 0 0 0 0 0 0 0 3 0.00126 
7963 4 0.00488952 0.0701202 -0.0331395 0 0 0 -0.302924 -0.246803 0.050652 -8.09779e-05 0.00139061 -0.00207179 0 0 0 0 0 1 0 0 0 0 0 0 0 0 0 0 121 0.00126 
9456 5 0.00886086 0.069746 -0.0337388 0 0 0 0.0564132 -0.427766 0.0472286 -0.00385936 -0.00201613 0.00127194 0 0 0 0 1 0 0 0 0 0 0 0 0 0 0 0 1 0.00126 
9871 6 0.0105658 0.0715873 -0.0336813 0 0 0 -0.129784 -0.228855 -0.0357701 0.00385936 0.00193393 -0.00127194 0 0 0 0 1 0 0 0 0 0 0 0 0 0 0 0 1 0.00126 
8598 9 0.00742805 0.0719296 -0.0336029 0 0 0 -0.207361 -0.515216 0.0555855 0 -4.10998e-05 0 0 0 0 0 0 0 0 0 0 0 0 0 0 0 0 0 89 0.00126 
4325 2 0.0022589 0.0741661 -0.0335605 0 0 0 -0.110553 -0.0601008 -0.360254 0.00332743 0.000102469 0.00165751 0 0 0 0 0 0 0 0 0 0 0 0 0 0 0 0 200 0.00126 
6997 3 0.0056977 0.0740667 -0.0337293 0 0 0 0.0263663 -0.141119 0.0185907 0 -4.10998e-05 0 0 0 0 0 0 0 0 0 0 0 0 0 0 0 0 0 139 0.00126 
5725 2 0.010163 0.0741088 -0.0337298 0 0 0 0.0376764 -0.278672 -0.0683212 0.00184033 -0.00222058 -0.00350037 0 1 0 0 0 0 0 0 0 0 0 0 0 0 0 0 200 0.00126 
6987 2 0.0128465 0.0733982 -0.0337323 0 0 0 0.183687 -0.38371 0.0293169 0 -4.10998e-05 0 0 0 0 0 0 0 0 0 0 0 0 0 0 0 0 0 147 0.00126 
3633 3 0.00568936 0.0458616 -0.032609 0 0 0 -0.401177 -0.694563 -0.113772 0 -4.10998e-05 0 0 0 0 0 0 0 0 0 0 0 0 0 0 0 0 0 152 0.00126 
9831 3 0.00859251 0.0466992 -0.032258 0 0 0 -0.615552 -1.23445 0.0889217 0 -4.10998e-05 0 0 0 0 0 0 0 0 0 0 0 0 0 0 0 0 0 1 0.00126 
5773 5 0.00226532 0.0509128 -0.0315771 0 0 0 -0.0833361 -0.755899 -0.0486609 -0.00213597 -0.00754826 -0.00261932 0 0 0 0 1 0 0 0 0 0 0 0 0 0 0 0 215 0.00126 
8202 1 0.00456725 0.0519399 -0.031371 0 0 0 0.110246 -0.874031 0.148704 0 -4.10998e-05 0 0 0 0 0 0 0 0 0 0 0 0 0 0 0 0 0 73 0.00126 
4483 4 0.00856166 0.0521581 -0.0325868 0 0 0 0.146264 -0.658857 0.0786046 0.00233838 0.0215046 0.0108494 0 1 0 1 0 0 0 0 0 0 0 0 0 0 0 0 227 0.00126 
7955 3 0.0023494 0.0558509 -0.0313032 0 0 0 0.0940367 -0.856645 -0.0696066 -0.000117385 1.86556e-05 0.000486466 1 0 0 0 0 0 0 0 0 0 0 0 0 0 0 0 98 0.00126 
9891 3 0.0147927 0.0547669 -0.0319931 0 0 0 0.103564 -0.703451 0.367535 0 -4.10998e-05 0 0 0 0 0 0 0 0 0 0 0 0 0 0 0 0 0 0 0.00126 
1948 3 0.0057848 0.0572595 -0.0312095 0 0 0 0.230973 -0.538528 0.0130672 0 -4.10998e-05 0 0 0 0 0 0 0 0 0 0 0 0 0 0 0 0 0 242 0.00126 
9878 5 0.00317658 0.0583156 -0.0313213 0 0 0 -0.22791 -0.765007 -0.254483 0 -4.10998e-05 0 0 0 0 0 0 0 0 0 0 0 0 0 0 0 0 0 0 0.00126 
2567 5 0.0158691 0.0585005 -0.0317279 0 0 0 -0.549487 -0.0281138 -0.227945 0 -4.10998e-05 0 0 0 0 0 0 0 0 0 0 0 0 0 0 0 0 0 256 0.00126 
3816 3 0.00663409 0.0600145 -0.0316354 0 0 0 -0.160698 -0.241473 0.261187 0 -4.10998e-05 0 0 0 0 0 0 0 0 0 0 0 0 0 0 0 0 0 216 0.00126 
9501 2 0.00257803 0.0616857 -0.0323513 0 0 0 -0.567917 -0.425782 -0.0449241 -0.0112248 -0.00398118 -0.00979466 0 1 0 0 0 0 0 0 0 0 0 0 0 0 0 0 7 0.00126 
602 8 0.0153817 0.0612274 -0.0308495 0 0 0 -0.176194 -1.05421 1.27447 0 -4.10998e-05 0 0 0 0 0 0 0 0 0 0 0 0 0 0 0 0 0 296 0.00126 
5066 8 0.00659965 0.0635498 -0.0317326 0 0 0 -0.318969 0.168151 -0.339536 0 -4.10998e-05 0 0 0 0 0 0 0 0 0 0 0 0 0 0 0 0 0 212 0.00126 
9525 7 0.00969569 0.0647682 -0.0314437 0 0 0 -0.0101532 -0.227949 0.127579 0 -4.10998e-05 0 0 0 0 0 0 0 0 0 0 0 0 0 0 0 0 0 5 0.00126 
5895 3 0.00269141 0.0687262 -0.0317402 0 0 0 0.13316 0.0148464 0.392707 0 -4.10998e-05 0 0 0 0 0 0 0 0 0 0 0 0 0 0 0 0 0 175 0.00126 
8680 4 0.00756797 0.0672937 -0.0321728 0 0 0 0.401119 -0.355111 -0.0348227 0.00548439 -0.00366516 -0.00475996 1 0 0 0 0 0 0 0 0 0 0 0 0 0 0 0 71 0.00126 
5537 4 0.00994891 0.0699425 -0.0312941 0 0 0 -0.0807979 -0.752562 0.00398299 0 -4.10998e-05 0 0 0 0 0 0 0 0 0 0 0 0 0 0 0 0 0 192 0.00126 
9500 3 0.0142439 0.0698697 -0.032628 0 0 0 -0.491157 -0.275588 0.0551678 0 -4.10998e-05 0 0 0 0 0 0 0 0 0 0 0 0 0 0 0 0 0 2 0.00126 
7652 9 0.00238046 0.0715734 -0.0324045 0 0 0 -0.118504 -0.354027 -0.354825 0 -4.10998e-05 0 0 0 0 0 0 0 0 0 0 0 0 0 0 0 0 0 113 0.00126 
3212 3 0.0047602 0.0723967 -0.0320581 0 0 0 -0.130195 -0.253806 -0.11813 0 -4.10998e-05 0 0 0 0 0 0 0 0 0 0 0 0 0 0 0 0 0 207 0.00126 
2756 1 0.00846145 0.0730711 -0.03157 0 0 0 0.0772604 -0.519919 -0.0423862 0.00463298 -0.000547232 -0.00470868 1 0 0 0 0 0 0 0 0 0 0 0 0 0 0 0 257 0.00126 
6614 3 0.011721 0.0728569 -0.0315191 0 0 0 0.230485 -0.739144 0.0682798 0 -4.10998e-05 0 0 0 0 0 0 0 0 0 0 0 0 0 0 0 0 0 129 0.00126 
4217 4 0.0147704 0.0727188 -0.0319075 0 0 0 -0.0166568 -0.208455 0.371535 0 -4.10998e-05 0 0 0 0 0 0 0 0 0 0 0 0 0 0 0 0 0 246 0.00126 
1120 11 0.00821658 0.0246156 -0.0315455 0 0 0 1.6563 -0.185537 -1.41417 0 -4.10998e-05 0 0 0 0 0 0 0 0 0 0 0 0 0 0 0 0 0 200 0.00126 
7850 5 0.00547888 0.0285506 -0.02926 0 0 0 -0.882663 -0.615581 1.01677 0 -4.10998e-05 0 0 0 0 0 0 0 0 0 0 0 0 0 0 0 0 0 102 0.00126 
7527 3 0.00363566 0.0360762 -0.0302635 0 0 0 0.625059 -0.524764 0.54162 0 -4.10998e-05 0 0 0 0 0 0 0 0 0 0 0 0 0 0 0 0 0 131 0.00126 
8428 2 0.00372447 0.0386597 -0.0303006 0 0 0 -0.382604 -1.17049 -0.137444 0 -4.10998e-05 0 0 0 0 0 0 0 0 0 0 0 0 0 0 0 0 0 73 0.00126 
5479 9 0.00390995 0.0442564 -0.03016 0 0 0 -0.663136 -1.05359 0.148254 0 -4.10998e-05 0 0 0 0 0 0 0 0 0 0 0 0 0 0 0 0 0 216 0.00126 
9834 2 0.00357803 0.0468439 -0.0300458 0 0 0 0.0787956 -0.876375 0.0809119 0 -4.10998e-05 0 0 0 0 0 0 0 0 0 0 0 0 0 0 0 0 0 0 0.00126 
6778 2 0.0064379 0.046702 -0.0300532 0 0 0 -0.625074 -1.25405 0.394785 0 -4.10998e-05 0 0 0 0 0 0 0 0 0 0 0 0 0 0 0 0 0 182 0.00126 
4717 2 0.00511993 0.0489479 -0.0297955 0 0 0 -0.262535 -0.667593 0.175757 0 -4.10998e-05 0 0 0 0 0 0 0 0 0 0 0 0 0 0 0 0 0 190 0.00126 
6125 1 0.0081038 0.0501767 -0.0311162 0 0 0 0.288735 -0.760962 0.112409 0.000856044 -0.00319179 0.00151588 0 0 0 1 0 0 0 0 0 0 0 0 0 0 0 0 127 0.00126 
5979 7 0.0113996 0.0515058 -0.030731 0 0 0 -1.01495 -0.855885 0.780631 0 -4.10998e-05 0 0 0 0 0 0 0 0 0 0 0 0 0 0 0 0 0 192 0.00126 
2957 5 0.00672967 0.0525731 -0.0301377 0 0 0 -0.151327 -0.653807 0.162497 0 -4.10998e-05 0 0 0 0 0 0 0 0 0 0 0 0 0 0 0 0 0 248 0.00126 
1542 9 0.00250228 0.0533447 -0.0310345 0 0 0 0.166926 -0.724362 0.0815555 0.00213597 0.00746606 0.00261932 0 0 0 0 1 0 0 0 0 0 0 0 0 0 0 0 270 0.00126 
5171 7 0.00486789 0.0546891 -0.0304621 0 0 0 0.415015 -1.00462 -0.136927 0 -4.10998e-05 0 0 0 0 0 0 0 0 0 0 0 0 0 0 0 0 0 213 0.00126 
9907 9 0.00738444 0.0554243 -0.029948 0 0 0 -0.0694788 -0.83794 0.370344 0 -4.10998e-05 0 0 0 0 0 0 0 0 0 0 0 0 0 0 0 0 0 0 0.00126 
4568 5 0.0112482 0.0559021 -0.0310438 0 0 0 -1.23216 -1.04285 0.132692 0 -4.10998e-05 0 0 0 0 0 0 0 0 0 0 0 0 0 0 0 0 0 202 0.00126 
9910 5 0.00815155 0.0579472 -0.0296961 0 0 0 0.16238 -0.831254 -0.0510133 0 -4.10998e-05 0 0 0 0 0 0 0 0 0 0 0 0 0 0 0 0 0 0 0.00126 
9513 8 0.00420567 0.0606164 -0.0304001 0 0 0 -0.617265 -0.0540355 -0.611745 0 -4.10998e-05 0 0 0 0 0 0 0 0 0 0 0 0 0 0 0 0 0 25 0.00126 
9909 7 0.0134132 0.0605738 -0.0330042 0 0 0 0.899771 -0.885586 -4.19312 0 -4.10998e-05 0 0 0 0 0 0 0 0 0 0 0 0 0 0 0 0 0 0 0.00126 
9935 12 0.00407267 0.0633266 -0.0312162 0 0 0 -0.427573 0.269113 -0.709772 0.0112248 0.00389898 0.00979466 0 1 0 0 0 0 0 0 0 0 0 0 0 0 0 0 1 0.00126 
9916 8 0.0116074 0.0629331 -0.0307531 0 0 0 0.222023 -0.0832122 0.229998 0 -4.10998e-05 0 0 0 0 0 0 0 0 0 0 0 0 0 0 0 0 0 1 0.00126 
6826 6 0.0112169 0.0668505 -0.0307537 0 0 0 -0.0431176 -0.557405 0.165679 0 -4.10998e-05 0 0 0 0 0 0 0 0 0 0 0 0 0 0 0 0 0 129 0.00126 
9923 2 0.0140785 0.0669107 -0.0303483 0 0 0 -0.215727 -0.924235 0.419901 -0.00843322 -0.00496768 -0.00519096 0 1 0 0 0 0 0 0 0 0 0 0 0 0 0 0 1 0.00126 
2285 2 0.0088496 0.0679452 -0.0298012 0 0 0 -0.0226157 -0.582011 0.518211 0 -4.10998e-05 0 0 0 0 0 0 0 0 0 0 0 0 0 0 0 0 0 290 0.00126 
3991 4 0.00633328 0.0692742 -0.0312673 0 0 0 0.173833 -0.384075 -0.227792 -0.00362491 0.00234614 0.000535299 0 0 0 1 0 0 0 0 0 0 0 0 0 0 0 0 236 0.00126 
7410 5 0.0126147 0.0690358 -0.0308372 0 0 0 -0.504063 -0.471958 0.350872 0 -4.10998e-05 0 0 0 0 0 0 0 0 0 0 0 0 0 0 0 0 0 145 0.00126 
3529 2 0.00232892 0.0736364 -0.0308759 0 0 0 -0.17935 -0.150875 -0.70091 -0.0067277 -0.00161557 0.000285245 0 1 0 0 0 0 0 0 0 0 0 0 0 0 0 0 244 0.00126 
6719 4 0.00630387 0.0739372 -0.0306301 0 0 0 -0.023097 -0.225808 -0.53241 0.00334766 -0.00492628 0.0018497 1 0 0 2 0 0 0 0 0 0 0 0 0 0 0 0 203 0.00126 
707 8 0.0101559 0.0741496 -0.0300234 0 0 0 0.330976 -0.813926 -0.204284 0.00435121 -0.00188787 -0.00966902 0 0 0 0 0 0 0 0 0 0 0 0 0 0 0 0 241 0.00126 
790 1 0.0065965 0.0215417 -0.0297829 0 0 0 0.908416 -1.53366 -0.786585 0 -4.10998e-05 0 0 0 0 0 0 0 0 0 0 0 0 0 0 0 0 0 266 0.00126 
5522 6 0.00293413 0.0281397 -0.0287024 0 0 0 0.12225 -0.948771 0.441478 0 -4.10998e-05 0 0 0 0 0 0 0 0 0 0 0 0 0 0 0 0 0 218 0.00126 
5850 3 0.0104569 0.0479967 -0.0296433 0 0 0 0.020002 -0.807458 -0.152234 0 -4.10998e-05 0 0 0 0 0 0 0 0 0 0 0 0 0 0 0 0 0 186 0.00126 
3591 4 0.0166959 0.0472121 -0.028434 0 0 0 0.488495 -2.62396 0.215007 0 -4.10998e-05 0 0 0 0 0 0 0 0 0 0 0 0 0 0 0 0 0 225 0.00126 
310 4 0.00231574 0.053292 -0.0285167 0 0 0 0.0500809 -1.04652 0.0616547 0 -4.10998e-05 0 0 0 0 0 0 0 0 0 0 0 0 0 0 0 0 0 276 0.00126 
9804 1 0.0139054 0.053699 -0.0282517 0 0 0 -0.917034 -0.0908606 1.35845 0 -4.10998e-05 0 0 0 0 0 0 0 0 0 0 0 0 0 0 0 0 0 1 0.00126 
2871 9 0.00373258 0.0555368 -0.0283353 0 0 0 0.163658 -1.10961 -0.0591372 0 -4.10998e-05 0 0 0 0 0 0 0 0 0 0 0 0 0 0 0 0 0 289 0.00126 
9929 3 0.00595794 0.0593029 -0.0285232 0 0 0 -0.0798028 -0.406435 -0.558137 0 -4.10998e-05 0 0 0 0 0 0 0 0 0 0 0 0 0 0 0 0 0 0 0.00126 
99 7 0.0128318 0.0589837 -0.0298914 0 0 0 1.21423 -0.531705 -2.84387 0 -4.10998e-05 0 0 0 0 0 0 0 0 0 0 0 0 0 0 0 0 0 353 0.00126 
969 2 0.00636549 0.0618209 -0.0292862 0 0 0 -0.751579 0.372937 0.105794 0 -4.10998e-05 0 0 0 0 0 0 0 0 0 0 0 0 0 0 0 0 0 301 0.00126 
840 3 0.00292415 0.0657636 -0.0279749 0 0 0 -0.503125 0.502385 1.83569 0 -4.10998e-05 0 0 0 0 0 0 0 0 0 0 0 0 0 0 0 0 0 246 0.00126 
2676 3 0.00576513 0.0647409 -0.029042 0 0 0 -0.116508 -0.599634 0.302693 0 -4.10998e-05 0 0 0 0 0 0 0 0 0 0 0 0 0 0 0 0 0 228 0.00126 
6296 5 0.00944595 0.0648487 -0.0287808 0 0 0 0.0150904 -0.961968 0.320135 0 -4.10998e-05 0 0 0 0 0 0 0 0 0 0 0 0 0 0 0 0 0 168 0.00126 
8129 2 0.0051355 0.0684153 -0.0292421 0 0 0 -0.561265 -0.487379 -0.586593 -0.00322164 0.000733472 0.00618709 0 0 0 1 0 0 0 0 0 0 0 0 0 0 0 0 84 0.00126 
6043 8 0.0160355 0.0679649 -0.0292089 0 0 0 0.7685 -1.47841 -0.425087 0.00875399 0.0066772 0.00514144 0 1 0 0 0 0 0 0 0 0 0 0 0 0 0 0 187 0.00126 
5739 4 0.00232653 0.0713325 -0.0298437 0 0 0 -0.64624 -1.00382 -1.77328 0 -4.10998e-05 0 0 0 0 0 0 0 0 0 0 0 0 0 0 0 0 0 182 0.00126 
9868 2 0.00508293 0.0711571 -0.0298319 0 0 0 -0.0407346 -0.914494 -0.348078 0 -4.10998e-05 0 0 0 0 0 0 0 0 0 0 0 0 0 0 0 0 0 0 0.00126 
6567 1 0.00769603 0.070424 -0.0294792 0 0 0 0.203926 -0.615887 -0.132606 0 -4.10998e-05 0 0 0 0 0 0 0 0 0 0 0 0 0 0 0 0 0 169 0.00126 
3031 7 0.00225659 0.074669 -0.0284967 0 0 0 -0.498121 0.0426699 -0.289805 0.0206492 0.0730445 -0.0447256 0 0 0 0 0 0 1 0 0 0 0 0 0 0 0 0 313 0.00126 
4942 3 0.0138665 0.0725951 -0.0293873 0 0 0 0.542554 -2.05475 -1.56239 0 -4.10998e-05 0 0 0 0 0 0 0 0 0 0 0 0 0 0 0 0 0 201 0.00126 