ITEM: TIMESTEP
20000000
ITEM: NUMBER OF ATOMS
4535
ITEM: BOX BOUNDS ff ff ff
-0.01 0.45
-0.15 0.15
-0.08 0.1
ITEM: ATOMS id type x y z ix iy iz vx vy vz fx fy fz c_cc_1 c_cc_2 c_cc_3 c_cc_4 c_cc_5 c_cc_6 c_cc_7 c_cc_8 c_cc_9 c_cc_10 c_cc_11 c_cc_12 c_cc_13 c_cc_14 c_cc_15 c_cc_16 f_fppacc radius 
1032 3 0.00317688 -0.0317814 -0.0521607 0 0 0 0.00305935 2.58201e-09 -5.36545e-10 0.000401658 1.28991e-09 -2.3666e-10 0 0 0 0 0 0 0 0 0 0 0 0 0 0 0 0 242 0.00159 
4787 1 0.0113349 -0.0284303 -0.0495962 0 0 0 1.21551 -1.70979 1.97051 0 -8.25884e-05 0 0 0 0 0 0 0 0 0 0 0 0 0 0 0 0 0 7 0.00159 
2238 6 0.00413396 -0.0358329 -0.0453232 0 0 0 0.934283 -8.2736 6.23359 0 -8.25884e-05 0 0 0 0 0 0 0 0 0 0 0 0 0 0 0 0 0 246 0.00159 
4501 5 0.0141778 -0.0360068 -0.0452552 0 0 0 1.77173 -2.98018 2.58283 0 -8.25884e-05 0 0 0 0 0 0 0 0 0 0 0 0 0 0 0 0 0 61 0.00159 
2095 8 0.0156061 -0.0184722 -0.0473441 0 0 0 0.953889 -2.96672 -0.0377635 0 -8.25884e-05 0 0 0 0 0 0 0 0 0 0 0 0 0 0 0 0 0 257 0.00159 
3679 6 0.00406604 -0.0385737 -0.043146 0 0 0 1.11342 -9.24133 6.06422 0 -8.25884e-05 0 0 0 0 0 0 0 0 0 0 0 0 0 0 0 0 0 104 0.00159 
2028 8 0.00550822 -0.0118074 -0.0430447 0 0 0 0.683787 -1.96272 2.06923 0 -8.25884e-05 0 0 0 0 0 0 0 0 0 0 0 0 0 0 0 0 0 262 0.00159 
471 4 0.00442524 -0.0420193 -0.0402168 0 0 0 -0.47862 -3.82522 3.24429 0 -8.25884e-05 0 0 0 0 0 0 0 0 0 0 0 0 0 0 0 0 0 290 0.00159 
2679 1 0.00895999 -0.00720271 -0.0391959 0 0 0 0.188708 -2.1083 -0.225616 0 -8.25884e-05 0 0 0 0 0 0 0 0 0 0 0 0 0 0 0 0 0 194 0.00159 
4126 4 0.00984737 -0.0449675 -0.0284322 0 0 0 1.55311 -10.8429 18.9908 0 -8.25884e-05 0 0 0 0 0 0 0 0 0 0 0 0 0 0 0 0 0 61 0.00159 
3302 10 0.0166851 -0.0531998 -0.0294594 0 0 0 -8.25742e-06 -3.28071e-07 4.69e-06 3.90171e-07 4.82556e-07 -7.36647e-08 0 0 0 0 0 0 0 0 0 0 0 0 0 0 0 0 63 0.00159 
4721 3 0.00261081 -0.0554786 -0.0180191 0 0 0 0.375443 -2.48552 7.83915 -0.0220436 0.282661 0.102498 0 0 0 0 0 0 0 0 0 0 0 0 0 0 0 0 1 0.00159 
4927 2 0.0171772 -0.0368131 -0.0305166 0 0 0 -7.22716 -13.7306 31.887 0 -8.25884e-05 0 0 0 0 0 0 0 0 0 0 0 0 0 0 0 0 0 0 0.00159 
1312 1 0.0170956 -0.0585238 -0.0167028 0 0 0 0.00445839 2.17501e-14 6.76327e-15 -6.17792e-05 0 -4.44089e-16 0 0 0 0 0 0 0 0 0 0 0 0 0 0 0 0 145 0.00159 
965 6 0.00628655 -0.0553457 -0.0153377 0 0 0 0.437063 -3.3901 4.52004 0 -8.25884e-05 0 0 0 0 0 0 0 0 0 0 0 0 0 0 0 0 0 238 0.00159 
3482 5 0.00481342 -0.0501206 0.0236537 0 0 0 1.09431 4.11807 7.80795 0 -8.25884e-05 0 0 0 0 0 0 0 0 0 0 0 0 0 0 0 0 0 176 0.00159 
300 5 0.0074579 -0.0472095 0.0294483 0 0 0 2.81755 7.82826 9.62641 0 -8.25884e-05 0 0 0 0 0 0 0 0 0 0 0 0 0 0 0 0 0 266 0.00159 
783 3 0.016779 -0.0332748 0.0261286 0 0 0 0.643987 3.55155 4.53294 0 -8.25884e-05 0 0 0 0 0 0 0 0 0 0 0 0 0 0 0 0 0 276 0.00159 
4807 4 0.00431158 -0.0497747 0.0296435 0 0 0 0.805666 4.74475 6.30137 0 -8.25884e-05 0 0 0 0 0 0 0 0 0 0 0 0 0 0 0 0 0 6 0.00159 
3353 2 0.00379121 -0.0235582 0.0380649 0 0 0 -1.29077 16.9775 16.1407 0 -8.25884e-05 0 0 0 0 0 0 0 0 0 0 0 0 0 0 0 0 0 115 0.00159 
1966 4 0.002681 -0.0219013 0.0536733 0 0 0 1.05908 13.6264 5.34071 0 -8.25884e-05 0 0 0 0 0 0 0 0 0 0 0 0 0 0 0 0 0 181 0.00159 
4846 4 0.0104775 -0.0228002 0.0531428 0 0 0 3.35776 8.09361 3.35817 0 -8.25884e-05 0 0 0 0 0 0 0 0 0 0 0 0 0 0 0 0 0 1 0.00159 
3315 1 0.00672467 -0.0568574 0.0122315 0 0 0 2.14524 1.77637 7.56526 0 -8.25884e-05 0 0 0 0 0 0 0 0 0 0 0 0 0 0 0 0 0 79 0.00159 
1733 4 0.00311814 -0.0568641 0.0129432 0 0 0 -16.1695 14.0256 61.9496 -0.125437 0.29278 0.0612164 0 0 0 0 0 0 0 0 0 0 0 0 0 0 0 0 231 0.00159 
2216 3 0.0165376 0.0136258 -0.0592736 0 0 0 -4.51823e-06 -2.51544e-13 8.84062e-13 7.92477e-17 0 0 0 0 0 0 0 0 0 0 0 0 0 0 0 0 0 0 9 0.00159 
3541 1 0.00312416 0.0192496 -0.0537253 0 0 0 -2.72388 -0.355846 3.05344 0 -8.25884e-05 0 0 0 0 0 0 0 0 0 0 0 0 0 0 0 0 0 111 0.00159 
3404 5 0.0106733 0.0274645 -0.0508641 0 0 0 0.436261 -1.95631 -1.21618 0 -8.25884e-05 0 0 0 0 0 0 0 0 0 0 0 0 0 0 0 0 0 147 0.00159 
2408 4 0.0131149 0.0210837 -0.04991 0 0 0 1.84915 -1.87183 -2.4354 0 -8.25884e-05 0 0 0 0 0 0 0 0 0 0 0 0 0 0 0 0 0 252 0.00159 
3432 4 0.0185842 0.0677838 -0.0270975 0 0 0 -0.761265 -0.848246 1.21842 0 -8.25884e-05 0 0 0 0 0 0 0 0 0 0 0 0 0 0 0 0 0 155 0.00159 
2317 2 0.00363672 0.023653 -0.0510858 0 0 0 0.0414586 -1.34298 -2.19426 0 -8.25884e-05 0 0 0 0 0 0 0 0 0 0 0 0 0 0 0 0 0 210 0.00159 
4088 11 0.00959257 0.0346365 -0.0456097 0 0 0 0.0554498 -1.14275 -0.562125 0 -8.25884e-05 0 0 0 0 0 0 0 0 0 0 0 0 0 0 0 0 0 124 0.00159 
933 11 0.00803852 0.00791996 -0.0439706 0 0 0 0.364806 -1.04463 -0.553315 0 -8.25884e-05 0 0 0 0 0 0 0 0 0 0 0 0 0 0 0 0 0 255 0.00159 
1267 3 0.00796094 0.0315949 -0.0425883 0 0 0 0.503381 -1.19608 0.15486 0 -8.25884e-05 0 0 0 0 0 0 0 0 0 0 0 0 0 0 0 0 0 201 0.00159 
4817 3 0.00271048 0.0335366 -0.0440353 0 0 0 0.0169169 -1.22506 -1.15216 0 -8.25884e-05 0 0 0 0 0 0 0 0 0 0 0 0 0 0 0 0 0 0 0.00159 
100 5 0.00415099 0.0366467 -0.0440646 0 0 0 -0.0695986 -0.841008 -2.97965 0 -8.25884e-05 0 0 0 0 0 0 0 0 0 0 0 0 0 0 0 0 0 290 0.00159 
2681 2 0.0164372 0.0427375 -0.0432783 0 0 0 -8.13709e-07 2.21921e-12 -2.02308e-12 -4.20163e-18 0 0 0 0 0 0 0 0 0 0 0 0 0 0 0 0 0 0 189 0.00159 
807 4 0.00681336 0.0256497 -0.0430209 0 0 0 0.238466 -0.359779 -2.86133 0 -8.25884e-05 0 0 0 0 0 0 0 0 0 0 0 0 0 0 0 0 0 223 0.00159 
4863 11 0.0074099 0.0389796 -0.0425012 0 0 0 0.213465 -0.8481 -0.638345 0 -8.25884e-05 0 0 0 0 0 0 0 0 0 0 0 0 0 0 0 0 0 1 0.00159 
2237 11 0.0156094 0.000823552 -0.0403968 0 0 0 0.566222 -1.7046 -0.420153 0 -8.25884e-05 0 0 0 0 0 0 0 0 0 0 0 0 0 0 0 0 0 10 0.00159 
3554 1 0.00840668 0.0234105 -0.0410424 0 0 0 1.2748 -1.76811 -3.60864 0 -8.25884e-05 0 0 0 0 0 0 0 0 0 0 0 0 0 0 0 0 0 75 0.00159 
3836 2 0.00410955 0.0358754 -0.0407279 0 0 0 -0.382969 -1.73293 -2.58158 0 -8.25884e-05 0 0 0 0 0 0 0 0 0 0 0 0 0 0 0 0 0 83 0.00159 
1970 2 0.00270841 0.0420007 -0.0399168 0 0 0 0.0436829 0.508761 0.0558454 0 -8.25884e-05 0 0 0 0 0 0 0 0 0 0 0 0 0 0 0 0 0 179 0.00159 
4323 4 0.0090155 0.0427627 -0.0390696 0 0 0 0.189679 -0.600207 -0.10615 0 -8.25884e-05 0 0 0 0 0 0 0 0 0 0 0 0 0 0 0 0 0 57 0.00159 
4907 9 0.00316292 0.00813861 -0.0406246 0 0 0 0.400317 -5.19651 -4.09146 0 -8.25884e-05 0 0 0 0 0 0 0 0 0 0 0 0 0 0 0 0 0 0 0.00159 
4478 8 0.00980269 0.0325027 -0.0383837 0 0 0 0.415917 -1.74006 -0.991477 0 -8.25884e-05 0 0 0 0 0 0 0 0 0 0 0 0 0 0 0 0 0 49 0.00159 
3259 4 0.00373284 0.0382625 -0.0382029 0 0 0 0.634583 -3.04425 -1.37411 0 -8.25884e-05 0 0 0 0 0 0 0 0 0 0 0 0 0 0 0 0 0 147 0.00159 
2659 6 0.00371554 0.0155255 -0.0372957 0 0 0 0.590292 -3.59797 -2.89134 0 -8.25884e-05 0 0 0 0 0 0 0 0 0 0 0 0 0 0 0 0 0 179 0.00159 
1095 5 0.010456 0.0391798 -0.0369237 0 0 0 1.15468 -0.616275 -1.22614 0 -8.25884e-05 0 0 0 0 0 0 0 0 0 0 0 0 0 0 0 0 0 233 0.00159 
1254 8 0.0146946 0.0490737 -0.0364105 0 0 0 -9.14414e-16 3.68358e-15 -2.79052e-15 -5.55112e-17 -2.22045e-16 0 0 0 0 0 0 0 0 0 0 0 0 0 0 0 0 0 0 0.00159 
2760 12 0.012761 0.0517959 -0.0355001 0 0 0 2.06967e-12 -8.46505e-13 -3.89088e-13 2.00784e-13 -1.30201e-13 -1.77636e-15 0 0 0 0 0 0 0 0 0 0 0 1 0 0 0 0 175 0.00159 
412 5 0.0160141 0.0524536 -0.0355016 0 0 0 -1.63093e-12 -1.42469e-12 -3.63409e-13 -1.39527e-13 -1.62759e-13 -1.77636e-15 0 0 0 0 1 0 0 0 0 0 0 0 0 0 0 0 343 0.00159 
570 7 0.013956 0.0546019 -0.0354983 0 0 0 -4.38656e-13 2.27116e-12 -4.05458e-13 -6.12288e-14 2.93043e-13 3.55271e-15 0 0 0 0 1 0 0 0 0 0 0 1 0 0 0 0 518 0.00159 
729 1 0.0185535 0.0550521 -0.0355 0 0 0 6.66474e-53 -9.84503e-20 4.82589e-12 -2.57609e-53 6.77626e-21 0 0 0 0 0 0 0 0 0 0 0 0 0 0 0 0 0 34 0.00159 
33 2 0.0126599 0.0593367 -0.0355088 0 0 0 0.00168179 -0.00252509 -0.000124846 -0.000165497 0.000245685 2.04217e-05 0 1 0 0 0 0 0 0 0 0 0 0 0 0 0 0 188 0.00159 
1048 3 0.0147307 0.0608842 -0.0354912 0 0 0 -0.00557714 0.00614823 0.0027985 0.000687883 -0.000617687 -0.000252257 0 1 1 0 0 0 0 0 0 0 0 0 0 0 0 0 240 0.00159 
927 6 0.018043 0.0622577 -0.0355047 0 0 0 -6.2811e-16 -1.82935e-18 4.4846e-12 -2.77556e-17 0 0 0 0 0 0 0 1 0 0 0 0 0 0 0 0 0 0 291 0.00159 
481 7 0.00915921 0.0643926 -0.0355 0 0 0 1.64337e-07 1.02811e-07 5.75206e-08 -1.74629e-08 -2.98182e-08 6.51901e-08 0 0 0 0 0 0 0 0 0 0 0 0 0 0 0 0 7 0.00159 
197 5 0.0175294 0.0649543 -0.0354953 0 0 0 5.88685e-16 -5.33938e-16 4.48162e-12 5.55112e-17 0 0 0 0 0 0 0 1 0 0 0 0 0 0 0 0 0 0 279 0.00159 
4771 6 0.00387744 0.0245319 -0.0366429 0 0 0 0.340008 -1.13339 -5.48414 0 -8.25884e-05 0 0 0 0 0 0 0 0 0 0 0 0 0 0 0 0 0 1 0.00159 
3156 4 0.00258969 0.0434424 -0.0333476 0 0 0 0.0725593 -0.738779 -0.133066 -0.00199039 0.00335084 0.000728728 0 0 0 0 0 0 0 0 0 0 0 0 0 0 0 0 139 0.00159 
3820 8 0.00307004 0.0494975 -0.0334002 0 0 0 0.0325878 -0.501351 0.0052496 0 -8.25884e-05 0 0 0 0 0 0 0 0 0 0 0 0 0 0 0 0 0 171 0.00159 
1570 7 0.0106405 0.0616502 -0.0333193 0 0 0 -0.328152 -0.77007 0.387743 0 -8.25884e-05 0 0 0 0 0 0 0 0 0 0 0 0 0 0 0 0 0 289 0.00159 
4332 12 0.0143075 0.0630554 -0.0332242 0 0 0 -0.0871087 -0.340848 0.643219 -9.54597e-06 -0.000100078 -2.43615e-05 0 0 1 0 0 0 0 0 0 0 0 0 0 0 0 0 42 0.00159 
2894 10 0.0056418 0.0634074 -0.033163 0 0 0 -1.597 -0.579528 -0.0241927 0.0542047 0.0242656 0.0559153 0 0 0 0 0 0 0 0 0 1 0 0 0 0 0 0 174 0.00159 
3626 4 0.00522877 0.06684 -0.033416 0 0 0 0.150318 -0.724626 -0.00773549 0.00338719 -0.021254 -0.00109821 0 0 0 2 0 0 0 0 0 0 0 0 0 0 0 0 162 0.00159 
4788 7 0.0116188 0.0668801 -0.0331872 0 0 0 -0.365605 -1.42966 -0.125422 0 -8.25884e-05 0 0 0 0 0 0 0 0 0 0 0 0 0 0 0 0 0 1 0.00159 
4418 6 0.0148557 0.0663816 -0.0334378 0 0 0 -0.201606 -0.853019 0.25287 0.00465397 -0.00789186 -0.00622847 0 0 0 0 0 1 0 0 0 0 0 0 0 0 0 0 41 0.00159 
2672 2 0.0129768 0.0702084 -0.0334458 0 0 0 -0.556622 -0.00942517 0.370751 0.00274722 0.0070543 0.0277099 0 2 0 0 0 0 0 0 0 0 0 0 0 0 0 0 169 0.00159 
4906 14 0.0167538 0.0700468 -0.0334113 0 0 0 -0.168077 -0.213642 0.309792 0.00703115 0.00124511 -0.0168405 0 0 0 0 0 0 0 0 0 0 0 0 0 1 0 0 6 0.00159 
2702 7 0.00549624 0.0448488 -0.0329963 0 0 0 0.102634 -1.1038 -0.166414 0 -8.25884e-05 0 0 0 0 0 0 0 0 0 0 0 0 0 0 0 0 0 209 0.00159 
189 5 0.00900011 0.0453023 -0.0330673 0 0 0 -0.292255 -1.0593 -0.151776 0 -8.25884e-05 0 0 0 0 0 0 0 0 0 0 0 0 0 0 0 0 0 279 0.00159 
4848 1 0.0166069 0.044758 -0.0334706 0 0 0 -0.432157 -1.50807 -2.6995 0 -8.25884e-05 0 0 0 0 0 0 0 0 0 0 0 0 0 0 0 0 0 2 0.00159 
680 3 0.0116039 0.0471796 -0.0323957 0 0 0 -0.427254 -0.493974 0.285178 0 -8.25884e-05 0 0 0 0 0 0 0 0 0 0 0 0 0 0 0 0 0 262 0.00159 
331 7 0.00583055 0.0513902 -0.0329912 0 0 0 0.0830269 -0.510118 0.0775732 0 -8.25884e-05 0 0 0 0 0 0 0 0 0 0 0 0 0 0 0 0 0 194 0.00159 
3125 8 0.013179 0.0509169 -0.0324386 0 0 0 -0.480562 -0.756212 -0.12863 0 -8.25884e-05 0 0 0 0 0 0 0 0 0 0 0 0 0 0 0 0 0 166 0.00159 
1839 3 0.00275183 0.0527091 -0.0318355 0 0 0 0.0282983 -0.498454 0.189168 0 -8.25884e-05 0 0 0 0 0 0 0 0 0 0 0 0 0 0 0 0 0 270 0.00159 
2417 9 0.00282564 0.0567782 -0.0331102 0 0 0 -0.0018462 -0.49937 -0.759979 0 -8.25884e-05 0 0 0 0 0 0 0 0 0 0 0 0 0 0 0 0 0 230 0.00159 
1947 4 0.00606051 0.0584401 -0.0317985 0 0 0 0.116427 -0.713107 0.200785 0 -8.25884e-05 0 0 0 0 0 0 0 0 0 0 0 0 0 0 0 0 0 226 0.00159 
4908 5 0.0134607 0.0584628 -0.0319022 0 0 0 -0.164674 0.352141 0.542489 0 -8.25884e-05 0 0 0 0 0 0 0 0 0 0 0 0 0 0 0 0 0 0 0.00159 
3555 4 0.0036115 0.0609731 -0.0326619 0 0 0 -1.41135 -2.443 0.00787101 0 -8.25884e-05 0 0 0 0 0 0 0 0 0 0 0 0 0 0 0 0 0 117 0.00159 
136 6 0.00275377 0.0646492 -0.0327147 0 0 0 -0.231555 -0.779149 0.137537 -0.0542047 -0.0244308 -0.0559153 0 0 0 0 0 0 0 0 0 1 0 0 0 0 0 0 271 0.00159 
2286 2 0.0100658 0.0640426 -0.0312899 0 0 0 -0.520666 -0.723969 0.0582424 0 -8.25884e-05 0 0 0 0 0 0 0 0 0 0 0 0 0 0 0 0 0 188 0.00159 
2914 2 0.0121099 0.0742341 0.00874409 0 0 0 0.519885 0.189826 -0.737397 0 -8.25884e-05 0 0 0 0 0 0 0 0 0 0 0 0 0 0 0 0 0 187 0.00159 
358 6 0.00256083 0.0684254 -0.0329455 0 0 0 0.306841 -0.373739 0.0654178 0.00928372 0.0463493 -0.00800274 0 0 0 1 0 1 0 0 0 0 0 0 0 0 0 0 241 0.00159 
476 11 0.0098519 0.0703937 -0.0333112 0 0 0 -0.920185 -0.299086 0.478227 -0.0344589 0.0017514 0.0191472 0 1 0 0 0 0 0 0 0 0 0 0 0 0 0 0 298 0.00159 
1398 3 0.00333288 0.0714694 -0.032836 0 0 0 -1.51691 0.719026 0.289698 -0.0904958 0.0353246 -0.0659067 0 0 0 0 0 1 0 0 0 0 0 0 0 0 0 0 232 0.00159 
2558 3 0.00606925 0.073106 -0.0320621 0 0 0 -1.65844 0.734419 -1.46432 0 -8.25884e-05 0 0 0 0 0 0 0 0 0 0 0 0 0 0 0 0 0 249 0.00159 
1221 3 0.0114697 0.0739305 -0.0330404 0 0 0 0.530887 -0.24336 -0.925436 0.00634461 -0.0252264 0.0198998 0 0 1 0 0 0 0 0 0 0 0 0 0 0 0 0 246 0.00159 
4130 3 0.0158209 0.0730161 -0.0329702 0 0 0 0.0653264 0.125895 0.261895 -0.0119781 0.0218861 0.00486924 0 0 0 0 0 0 0 0 0 0 0 0 0 1 0 0 61 0.00159 
182 1 0.00521356 0.0226838 -0.0329459 0 0 0 0.881994 -3.00231 -4.67259 0 -8.25884e-05 0 0 0 0 0 0 0 0 0 0 0 0 0 0 0 0 0 254 0.00159 
2525 1 0.00298503 0.046115 -0.0314426 0 0 0 -0.0574806 -0.57218 -0.595234 0 -8.25884e-05 0 0 0 0 0 0 0 0 0 0 0 0 0 0 0 0 0 170 0.00159 
2327 6 0.00981911 0.0501404 -0.0307018 0 0 0 -0.838965 -1.2507 -0.0966833 0 -8.25884e-05 0 0 0 0 0 0 0 0 0 0 0 0 0 0 0 0 0 182 0.00159 
3630 4 0.00260454 0.0575518 -0.0298589 0 0 0 0.0464646 -1.31176 -0.130735 0 -8.25884e-05 0 0 0 0 0 0 0 0 0 0 0 0 0 0 0 0 0 51 0.00159 
4533 2 0.00585829 0.0626743 -0.0300336 0 0 0 -0.386603 -1.87193 -0.114631 0 -8.25884e-05 0 0 0 0 0 0 0 0 0 0 0 0 0 0 0 0 0 8 0.00159 
4473 4 0.0165646 0.0623119 -0.0302573 0 0 0 -0.501158 -0.600076 0.307066 0 -8.25884e-05 0 0 0 0 0 0 0 0 0 0 0 0 0 0 0 0 0 32 0.00159 
3911 3 0.00326261 0.0649653 -0.0295414 0 0 0 0.45345 -0.862117 0.138146 0 -8.25884e-05 0 0 0 0 0 0 0 0 0 0 0 0 0 0 0 0 0 91 0.00159 
650 2 0.0064757 0.065795 -0.030716 0 0 0 -1.43193 -1.35852 0.539353 0.0196447 -0.0117366 0.0107418 0 0 0 1 0 0 0 0 0 0 0 0 0 0 0 0 203 0.00159 
1039 1 0.0132526 0.0652463 -0.0303918 0 0 0 -0.114159 -0.982786 0.257234 0 -8.25884e-05 0 0 0 0 0 0 0 0 0 0 0 0 0 0 0 0 0 230 0.00159 
4402 2 0.0167221 0.0667918 -0.0309505 0 0 0 -0.252681 -0.612206 0.268127 0.0130614 -0.00657925 0.0535453 0 1 0 0 0 1 0 0 0 0 0 0 0 0 0 0 53 0.00159 
658 3 0.00521458 0.0695384 -0.0312582 0 0 0 -2.69937 -0.563575 -1.83794 0.097988 -0.0254813 0.0696228 0 0 0 0 0 0 0 0 0 0 0 0 0 0 0 0 183 0.00159 
4265 3 0.0107867 0.0687656 -0.0307064 0 0 0 -0.912842 -1.52371 0.430936 0 -8.25884e-05 0 0 0 0 0 0 0 0 0 0 0 0 0 0 0 0 0 59 0.00159 
1975 3 0.0147709 0.0692781 -0.0310405 0 0 0 -0.409745 -0.730857 0.594895 0.00773906 0.00598848 0.00777181 0 2 0 0 0 0 0 0 0 0 0 0 0 0 0 0 190 0.00159 
4713 8 0.00953998 0.072665 -0.0308676 0 0 0 -0.15094 -0.344286 -0.324668 -0.00473247 0.0179942 -0.0200929 0 0 1 0 0 0 0 1 0 0 0 0 0 0 0 0 6 0.00159 
4831 3 0.0167931 0.0716691 -0.0296676 0 0 0 -0.716881 -0.751339 0.670009 0 -8.25884e-05 0 0 0 0 0 0 0 0 0 0 0 0 0 0 0 0 0 0 0.00159 
1523 2 0.0136502 0.0725314 -0.0306008 0 0 0 0.0500671 -1.21634 0.153727 0 -8.25884e-05 0 0 0 0 0 0 0 0 0 0 0 0 0 0 0 0 0 255 0.00159 
1177 2 0.012605 0.0188756 -0.0325151 0 0 0 0.879731 -3.89931 -6.99072 0 -8.25884e-05 0 0 0 0 0 0 0 0 0 0 0 0 0 0 0 0 0 211 0.00159 
1161 1 0.00563738 0.0367309 -0.0281779 0 0 0 -0.382323 -1.02604 -0.0549542 0 -8.25884e-05 0 0 0 0 0 0 0 0 0 0 0 0 0 0 0 0 0 14 0.00159 
4810 1 0.0105783 0.0417889 -0.0285915 0 0 0 -0.48798 -1.70741 0.0535397 0 -8.25884e-05 0 0 0 0 0 0 0 0 0 0 0 0 0 0 0 0 0 2 0.00159 
2676 11 0.00394547 0.0437155 -0.0292993 0 0 0 -0.498275 -0.528636 -1.01127 0 -8.25884e-05 0 0 0 0 0 0 0 0 0 0 0 0 0 0 0 0 0 176 0.00159 
1246 6 0.00772558 0.0445017 -0.0283371 0 0 0 0.0269705 -0.977062 -0.0354057 0 -8.25884e-05 0 0 0 0 0 0 0 0 0 0 0 0 0 0 0 0 0 264 0.00159 
3702 1 0.0181576 0.0434159 -0.0280608 0 0 0 1.56604 -0.505185 0.540122 0 -8.25884e-05 0 0 0 0 0 0 0 0 0 0 0 0 0 0 0 0 0 124 0.00159 
2892 1 0.0131497 0.0447977 -0.0292636 0 0 0 -0.255882 -1.1521 -0.182925 0 -8.25884e-05 0 0 0 0 0 0 0 0 0 0 0 0 0 0 0 0 0 159 0.00159 
4620 7 0.00285013 0.0482422 -0.0282311 0 0 0 0.287448 0.272692 -0.322808 0 -8.25884e-05 0 0 0 0 0 0 0 0 0 0 0 0 0 0 0 0 0 22 0.00159 
856 1 0.00885267 0.04789 -0.0286556 0 0 0 -0.984183 -1.3682 0.196386 0 -8.25884e-05 0 0 0 0 0 0 0 0 0 0 0 0 0 0 0 0 0 219 0.00159 
2489 3 0.00601244 0.0495493 -0.0282067 0 0 0 -0.349491 -0.740424 0.575984 0 -8.25884e-05 0 0 0 0 0 0 0 0 0 0 0 0 0 0 0 0 0 128 0.00159 
2198 8 0.0133524 0.0516568 -0.0276122 0 0 0 -0.538751 -0.941726 0.425933 0 -8.25884e-05 0 0 0 0 0 0 0 0 0 0 0 0 0 0 0 0 0 227 0.00159 
4825 5 0.0186346 0.0552953 -0.029019 0 0 0 0.40518 -0.355303 0.569066 0 -8.25884e-05 0 0 0 0 0 0 0 0 0 0 0 0 0 0 0 0 0 1 0.00159 
4674 5 0.00305816 0.0612675 -0.0290618 0 0 0 -0.00656009 -0.794732 0.230022 0 -8.25884e-05 0 0 0 0 0 0 0 0 0 0 0 0 0 0 0 0 0 9 0.00159 
4425 1 0.00953525 0.0615929 -0.028064 0 0 0 0.330054 -1.00892 0.683664 0 -8.25884e-05 0 0 0 0 0 0 0 0 0 0 0 0 0 0 0 0 0 64 0.00159 
1621 7 0.0134693 0.062367 -0.0281872 0 0 0 -0.51035 -0.268547 0.647317 0 -8.25884e-05 0 0 0 0 0 0 0 0 0 0 0 0 0 0 0 0 0 216 0.00159 
49 9 0.00265335 0.0677255 -0.0279616 0 0 0 -0.141067 -0.611705 -0.109486 -0.00883285 -0.0266941 -0.0118709 0 0 0 0 0 0 0 0 1 0 0 0 0 0 0 0 216 0.00159 
3478 2 0.00883812 0.0706031 -0.0279907 0 0 0 -0.545899 3.75546 0.673953 0 -8.25884e-05 0 0 0 0 0 0 0 0 0 0 0 0 0 0 0 0 0 163 0.00159 
2856 2 0.00422649 0.0704568 -0.0280225 0 0 0 0.117203 -0.894554 0.393307 0.00883285 0.0265289 0.0118709 0 0 0 0 0 0 0 0 1 0 0 0 0 0 0 0 175 0.00159 
842 1 0.0120727 0.0709 -0.0279867 0 0 0 -0.322588 -1.18614 -0.211658 0 -8.25884e-05 0 0 0 0 0 0 0 0 0 0 0 0 0 0 0 0 0 211 0.00159 
1344 1 0.0107045 0.0739799 -0.027876 0 0 0 -0.581571 -1.04347 -0.512231 0 -8.25884e-05 0 0 0 0 0 0 0 0 0 0 0 0 0 0 0 0 0 274 0.00159 
3140 8 0.0163087 0.0747648 -0.027479 0 0 0 -0.534104 0.572725 0.728754 -0.00347345 -0.00137473 -0.00146103 0 0 0 0 0 0 0 2 0 0 0 0 0 0 0 0 214 0.00159 
1801 2 0.00475286 0.0348609 -0.0254481 0 0 0 -0.382255 -0.873119 0.705286 0 -8.25884e-05 0 0 0 0 0 0 0 0 0 0 0 0 0 0 0 0 0 205 0.00159 
2908 6 0.0150126 0.0567771 -0.025862 0 0 0 -0.279952 -0.554251 1.13772 0 -8.25884e-05 0 0 0 0 0 0 0 0 0 0 0 0 0 0 0 0 0 153 0.00159 
2050 1 0.00641771 0.0616372 -0.0268855 0 0 0 -0.0250313 -0.998813 0.483776 0 -8.25884e-05 0 0 0 0 0 0 0 0 0 0 0 0 0 0 0 0 0 245 0.00159 
1749 6 0.0181925 0.0604235 -0.0275109 0 0 0 3.20812 -6.06719 -0.893616 0 -8.25884e-05 0 0 0 0 0 0 0 0 0 0 0 0 0 0 0 0 0 277 0.00159 
2744 6 0.00303033 0.0652561 -0.0257344 0 0 0 0.0418367 -0.799526 0.444769 0 -8.25884e-05 0 0 0 0 0 0 0 0 0 0 0 0 0 0 0 0 0 213 0.00159 
3907 4 0.01756 0.0651077 -0.0249148 0 0 0 2.89658 -2.48047 4.55799 0 -8.25884e-05 0 0 0 0 0 0 0 0 0 0 0 0 0 0 0 0 0 83 0.00159 
3568 1 0.0160372 0.072125 -0.0257588 0 0 0 -1.03698 0.88837 1.43166 -0.00325477 -0.00424699 0.00430723 0 0 0 0 0 0 0 1 0 0 0 0 0 0 0 0 87 0.00159 
4543 6 0.00285772 0.0735129 -0.0278707 0 0 0 -1.71831 -2.04789 -1.03564 0 -8.25884e-05 0 0 0 0 0 0 0 0 0 0 0 0 0 0 0 0 0 57 0.00159 
4922 2 0.0139014 0.0748468 -0.0249191 0 0 0 0.939658 -1.97425 -0.715602 0 -8.25884e-05 0 0 0 0 0 0 0 0 0 0 0 0 0 0 0 0 0 0 0.00159 
3240 5 0.0143527 0.0356122 -0.0245335 0 0 0 1.15888 -0.48721 0.642442 0 -8.25884e-05 0 0 0 0 0 0 0 0 0 0 0 0 0 0 0 0 0 132 0.00159 
730 5 0.00947783 0.0514904 -0.0257325 0 0 0 2.67408 2.72537 -0.793223 0 -8.25884e-05 0 0 0 0 0 0 0 0 0 0 0 0 0 0 0 0 0 270 0.00159 
774 5 0.0155253 0.049848 -0.0246095 0 0 0 0.0601044 -1.28622 0.291565 0 -8.25884e-05 0 0 0 0 0 0 0 0 0 0 0 0 0 0 0 0 0 140 0.00159 
2655 5 0.00484888 0.0603719 -0.0241647 0 0 0 0.17725 -0.426744 1.02876 0 -8.25884e-05 0 0 0 0 0 0 0 0 0 0 0 0 0 0 0 0 0 256 0.00159 
276 2 0.0112483 0.0607897 -0.0245268 0 0 0 -0.0182198 1.10121 0.845144 0 -8.25884e-05 0 0 0 0 0 0 0 0 0 0 0 0 0 0 0 0 0 228 0.00159 
1974 4 0.0075946 0.0630811 -0.0241478 0 0 0 -0.494497 -0.918007 0.905148 0 -8.25884e-05 0 0 0 0 0 0 0 0 0 0 0 0 0 0 0 0 0 186 0.00159 
2794 9 0.0180796 0.0698125 -0.0234091 0 0 0 -0.508746 -0.269884 0.867373 0 -8.25884e-05 0 0 0 0 0 0 0 0 0 0 0 0 0 0 0 0 0 164 0.00159 
1347 5 0.0161355 0.0302146 -0.0224508 0 0 0 -0.155822 -1.94819 0.391628 0 -8.25884e-05 0 0 0 0 0 0 0 0 0 0 0 0 0 0 0 0 0 293 0.00159 
3727 3 0.00262502 0.0355315 -0.0221836 0 0 0 0.212133 -0.167602 0.0699601 0 -8.25884e-05 0 0 0 0 0 0 0 0 0 0 0 0 0 0 0 0 0 137 0.00159 
670 2 0.0108333 0.0475964 -0.0227223 0 0 0 0.238006 -0.72374 0.477003 0 -8.25884e-05 0 0 0 0 0 0 0 0 0 0 0 0 0 0 0 0 0 229 0.00159 
3532 5 0.0147472 0.0690619 -0.0222006 0 0 0 -0.47096 -0.735575 1.26121 0 -8.25884e-05 0 0 0 0 0 0 0 0 0 0 0 0 0 0 0 0 0 102 0.00159 
687 3 0.00262923 0.0402836 -0.0215015 0 0 0 0.758498 -1.26487 0.330249 0 -8.25884e-05 0 0 0 0 0 0 0 0 0 0 0 0 0 0 0 0 0 221 0.00159 
4387 3 0.00295668 0.0657128 -0.0213148 0 0 0 0.244782 0.0722282 0.810859 0 -8.25884e-05 0 0 0 0 0 0 0 0 0 0 0 0 0 0 0 0 0 74 0.00159 
3208 8 0.0186044 0.0243972 -0.0222623 0 0 0 -0.159572 -5.13652 -8.20278 0 -8.25884e-05 0 0 0 0 0 0 0 0 0 0 0 0 0 0 0 0 0 181 0.00159 
2650 4 0.0180058 0.028789 -0.0190877 0 0 0 0.767211 -1.82118 0.659059 0 -8.25884e-05 0 0 0 0 0 0 0 0 0 0 0 0 0 0 0 0 0 199 0.00159 
3801 4 0.00688864 0.0326962 -0.0188085 0 0 0 3.9062 1.22377 0.0808628 0 -8.25884e-05 0 0 0 0 0 0 0 0 0 0 0 0 0 0 0 0 0 110 0.00159 
4916 6 0.0134068 0.0499083 -0.0171795 0 0 0 1.03019 -0.146211 -0.493663 0 -8.25884e-05 0 0 0 0 0 0 0 0 0 0 0 0 0 0 0 0 0 0 0.00159 
3926 6 0.00281713 0.0583212 -0.016522 0 0 0 0.121512 3.83693 1.81449 0 -8.25884e-05 0 0 0 0 0 0 0 0 0 0 0 0 0 0 0 0 0 55 0.00159 
1436 3 0.0067479 0.0616484 -0.0163015 0 0 0 0.429223 0.79193 0.518134 0 -8.25884e-05 0 0 0 0 0 0 0 0 0 0 0 0 0 0 0 0 0 236 0.00159 
4919 1 0.018762 0.0494217 -0.0218075 0 0 0 6.03377 -1.57178 -14.2511 0 -8.25884e-05 0 0 0 0 0 0 0 0 0 0 0 0 0 0 0 0 0 0 0.00159 
752 2 0.00606619 0.0404394 -0.016567 0 0 0 -1.03578 3.22347 -8.06196 0 -8.25884e-05 0 0 0 0 0 0 0 0 0 0 0 0 0 0 0 0 0 198 0.00159 
576 3 0.017877 0.0592165 -0.0135738 0 0 0 -0.29355 -0.297201 0.956942 0 -8.25884e-05 0 0 0 0 0 0 0 0 0 0 0 0 0 0 0 0 0 252 0.00159 
1166 6 0.00435779 0.030625 -0.0204767 0 0 0 -0.0914554 -0.114999 -21.3694 0 -8.25884e-05 0 0 0 0 0 0 0 0 0 0 0 0 0 0 0 0 0 276 0.00159 
3765 5 0.00260082 0.0633397 -0.0113274 0 0 0 0.16984 -0.171233 1.44482 0 -8.25884e-05 0 0 0 0 0 0 0 0 0 0 0 0 0 0 0 0 0 62 0.00159 
4069 7 0.0101411 0.0630307 -0.0100373 0 0 0 2.58109 0.187453 0.595367 0 -8.25884e-05 0 0 0 0 0 0 0 0 0 0 0 0 0 0 0 0 0 82 0.00159 
662 10 0.00595089 0.0707918 -0.00768481 0 0 0 -0.184591 0.0514355 2.2592 0 -8.25884e-05 0 0 0 0 0 0 0 0 0 0 0 0 0 0 0 0 0 266 0.00159 
2145 1 0.00484695 0.0412712 -0.0083114 0 0 0 0.164875 -0.694721 0.874166 0 -8.25884e-05 0 0 0 0 0 0 0 0 0 0 0 0 0 0 0 0 0 184 0.00159 
1705 3 0.0147251 0.0540956 -0.00746419 0 0 0 0.697325 -0.203229 0.257301 0 -8.25884e-05 0 0 0 0 0 0 0 0 0 0 0 0 0 0 0 0 0 175 0.00159 
2456 1 0.00594873 0.0543074 -0.00673477 0 0 0 -0.444157 -1.17556 1.53128 0 -8.25884e-05 0 0 0 0 0 0 0 0 0 0 0 0 0 0 0 0 0 226 0.00159 
834 3 0.0153485 0.0345721 -0.00542807 0 0 0 -0.00759808 -0.937793 0.77726 0 -8.25884e-05 0 0 0 0 0 0 0 0 0 0 0 0 0 0 0 0 0 259 0.00159 
1755 2 0.0135583 0.0738724 -0.0104256 0 0 0 -1.03559 6.36932 -10.3106 0 -8.25884e-05 0 0 0 0 0 0 0 0 0 0 0 0 0 0 0 0 0 258 0.00159 
355 8 0.00345394 0.060612 -0.00306287 0 0 0 0.546584 1.00826 1.80071 0 -8.25884e-05 0 0 0 0 0 0 0 0 0 0 0 0 0 0 0 0 0 294 0.00159 
3374 4 0.00566679 0.053713 -0.00198967 0 0 0 0.424193 -0.475675 1.14507 0 -8.25884e-05 0 0 0 0 0 0 0 0 0 0 0 0 0 0 0 0 0 135 0.00159 
3191 7 0.0153352 0.0591596 -0.00140964 0 0 0 -0.358412 -0.573629 1.23593 0 -8.25884e-05 0 0 0 0 0 0 0 0 0 0 0 0 0 0 0 0 0 125 0.00159 
4835 3 0.00496412 0.0645175 -0.000607374 0 0 0 3.06176 1.56679 3.85962 0 -8.25884e-05 0 0 0 0 0 0 0 0 0 0 0 0 0 0 0 0 0 1 0.00159 
1814 2 0.0132262 0.0715492 -0.0064874 0 0 0 -2.01829 2.42744 -6.16918 0 -8.25884e-05 0 0 0 0 0 0 0 0 0 0 0 0 0 0 0 0 0 252 0.00159 
799 3 0.00419528 0.0571201 0.00353293 0 0 0 -1.29011 1.28744 0.29307 0 -8.25884e-05 0 0 0 0 0 0 0 0 0 0 0 0 0 0 0 0 0 240 0.00159 
4514 7 0.0118832 0.0577356 0.00399985 0 0 0 0.245184 -1.1617 2.82147 0 -8.25884e-05 0 0 0 0 0 0 0 0 0 0 0 0 0 0 0 0 0 2 0.00159 
2734 3 0.0064671 0.0748504 0.00693315 0 0 0 0.0686428 0.179963 -1.23496 0 -8.25884e-05 0 0 0 0 0 0 0 0 0 0 0 0 0 0 0 0 0 183 0.00159 
871 3 0.0179511 0.0708178 -0.00190862 0 0 0 2.0294 13.4286 -28.2972 0 -8.25884e-05 0 0 0 0 0 0 0 0 0 0 0 0 0 0 0 0 0 268 0.00159 
2471 2 0.0186413 0.0602703 -0.0315611 0 0 0 -0.309019 -0.252815 0.329226 0 -8.25884e-05 0 0 0 0 0 0 0 0 0 0 0 0 0 0 0 0 0 189 0.00159 
4885 5 0.00956149 0.0369438 0.0113337 0 0 0 -0.296748 -0.744065 1.12285 0 -8.25884e-05 0 0 0 0 0 0 0 0 0 0 0 0 0 0 0 0 0 0 0.00159 
3865 3 0.0118504 0.0658078 0.0110379 0 0 0 -0.536203 -0.152595 -0.743681 0 -8.25884e-05 0 0 0 0 0 0 0 0 0 0 0 0 0 0 0 0 0 122 0.00159 
694 2 0.0138234 0.0515619 0.0228351 0 0 0 -10.6827 29.4508 -24.4628 0 -8.25884e-05 0 0 0 0 0 0 0 0 0 0 0 0 0 0 0 0 0 271 0.00159 
3960 2 0.0176757 0.0687572 0.0124897 0 0 0 -0.524428 0.854793 -1.00254 0 -8.25884e-05 0 0 0 0 0 0 0 0 0 0 0 0 0 0 0 0 0 130 0.00159 
161 2 0.0118502 0.0745001 0.01344 0 0 0 -0.171565 0.140925 -0.412859 -0.123409 0.209751 -0.10314 0 1 0 0 0 0 0 0 0 0 0 0 0 0 0 0 291 0.00159 
2643 1 0.00944059 0.0606539 0.0120942 0 0 0 0.851763 0.480274 -5.23872 0 -8.25884e-05 0 0 0 0 0 0 0 0 0 0 0 0 0 0 0 0 0 180 0.00159 
792 5 0.013702 0.0687331 0.0164321 0 0 0 -2.50267 2.93633 2.94537 0 -8.25884e-05 0 0 0 0 0 0 0 0 0 0 0 0 0 0 0 0 0 311 0.00159 
1720 7 0.0131724 0.0719005 0.0145678 0 0 0 -1.21751 4.83852 -1.32726 0.123409 -0.209916 0.10314 0 1 0 0 0 0 0 0 0 0 0 0 0 0 0 0 261 0.00159 
495 7 0.0183091 0.0719224 0.0137433 0 0 0 0.102489 0.777808 -0.968371 0 -8.25884e-05 0 0 0 0 0 0 0 0 0 0 0 0 0 0 0 0 0 302 0.00159 
483 7 0.00326468 0.0742021 0.0149111 0 0 0 -0.0674116 -0.130089 -0.268034 -0.00741441 0.00160857 -0.00684498 0 0 0 0 0 0 1 0 0 0 0 0 0 0 0 0 314 0.00159 
1937 7 0.0111209 0.0655254 0.0159156 0 0 0 -1.38489 0.133666 -0.626326 0 -8.25884e-05 0 0 0 0 0 0 0 0 0 0 0 0 0 0 0 0 0 313 0.00159 
3454 2 0.00391261 0.0685605 0.0165435 0 0 0 0.12504 -0.0761902 -0.328182 0 -8.25884e-05 0 0 0 0 0 0 0 0 0 0 0 0 0 0 0 0 0 99 0.00159 
846 2 0.00813338 0.0703911 0.0164783 0 0 0 -0.539336 0.193167 -0.889979 0 -8.25884e-05 0 0 0 0 0 0 0 0 0 0 0 0 0 0 0 0 0 280 0.00159 
3164 3 0.0174823 0.0694786 0.0171751 0 0 0 -0.030457 0.17668 -0.517087 0.000927705 -0.000229103 0.00132605 0 0 1 0 0 0 0 0 0 0 0 0 0 0 0 0 172 0.00159 
4474 5 0.00558221 0.0736784 0.0169949 0 0 0 0.00629646 0.101513 -0.135073 0.00741441 -0.00177375 0.00684498 0 0 0 0 0 0 1 0 0 0 0 0 0 0 0 0 62 0.00159 
1740 8 0.0162805 0.0736715 0.0156512 0 0 0 -0.216512 0.0562381 -0.151847 0 -8.25884e-05 0 0 0 0 0 0 0 0 0 0 0 0 0 0 0 0 0 229 0.00159 
3661 1 0.00873135 0.0654863 0.0180935 0 0 0 -1.55875 0.755116 -0.478951 0 -8.25884e-05 0 0 0 0 0 0 0 0 0 0 0 0 0 0 0 0 0 164 0.00159 
3434 9 0.0158768 0.0660845 0.0196365 0 0 0 0.548677 0.0305032 1.86865 0 -8.25884e-05 0 0 0 0 0 0 0 0 0 0 0 0 0 0 0 0 0 184 0.00159 
3362 8 0.00267939 0.0717615 0.017774 0 0 0 0.0187855 -0.0997964 0.160958 0 -8.25884e-05 0 0 0 0 0 0 0 0 0 0 0 0 0 0 0 0 0 81 0.00159 
4043 4 0.0145656 0.0736297 0.0191589 0 0 0 -0.181022 -0.075182 -0.133841 0 -8.25884e-05 0 0 0 0 0 0 0 0 0 0 0 0 0 0 0 0 0 83 0.00159 
4926 5 0.00623046 0.0394587 0.0131301 0 0 0 1.2307 13.8813 -13.7053 0 -8.25884e-05 0 0 0 0 0 0 0 0 0 0 0 0 0 0 0 0 0 0 0.00159 
434 8 0.0122837 0.0622779 0.0197611 0 0 0 -0.691332 -0.179706 -0.449082 0 -8.25884e-05 0 0 0 0 0 0 0 0 0 0 0 0 0 0 0 0 0 262 0.00159 
4200 3 0.0182477 0.063113 0.0201517 0 0 0 -0.0710879 -0.111428 -0.644421 0 -8.25884e-05 0 0 0 0 0 0 0 0 0 0 0 0 0 0 0 0 0 55 0.00159 
1491 6 0.00786487 0.0641999 0.0210151 0 0 0 -0.675826 -0.267709 -0.430492 0 -8.25884e-05 0 0 0 0 0 0 0 0 0 0 0 0 0 0 0 0 0 255 0.00159 
2155 2 0.0129135 0.0661425 0.0214336 0 0 0 -1.31509 0.546321 1.44405 0 -8.25884e-05 0 0 0 0 0 0 0 0 0 0 0 0 0 0 0 0 0 223 0.00159 
3695 5 0.00797515 0.0679053 0.0204551 0 0 0 0.37223 0.419269 -0.695995 0 -8.25884e-05 0 0 0 0 0 0 0 0 0 0 0 0 0 0 0 0 0 124 0.00159 
3787 1 0.0111477 0.068017 0.0192998 0 0 0 0.0179222 0.22574 -0.54561 0 -8.25884e-05 0 0 0 0 0 0 0 0 0 0 0 0 0 0 0 0 0 113 0.00159 
2696 2 0.00259303 0.0703603 0.0208145 0 0 0 -0.0389531 -0.138667 -0.0899492 -0.000283967 8.20772e-05 -6.55904e-06 0 1 0 0 0 0 0 0 0 0 0 0 0 0 0 0 189 0.00159 
3283 3 0.00576415 0.0701635 0.0208364 0 0 0 -0.00551142 0.0588361 -0.320772 0.000283967 -0.000247254 6.55904e-06 0 1 0 0 0 0 0 0 0 0 0 0 0 0 0 0 165 0.00159 
3680 7 0.0137934 0.0706311 0.0201448 0 0 0 0.215933 0.0902723 -0.393023 0 -8.25884e-05 0 0 0 0 0 0 0 0 0 0 0 0 0 0 0 0 0 131 0.00159 
3065 6 0.0076923 0.0729388 0.0193364 0 0 0 -0.00441818 0.033557 -0.245872 0 -8.25884e-05 0 0 0 0 0 0 0 0 0 0 0 0 0 0 0 0 0 172 0.00159 
2159 3 0.0111624 0.0730447 0.019293 0 0 0 -0.0977938 0.171993 -0.171478 0 -8.25884e-05 0 0 0 0 0 0 0 0 0 0 0 0 0 0 0 0 0 240 0.00159 
3419 8 0.016958 0.071829 0.0203454 0 0 0 -0.158153 -0.00268566 -0.202865 0 -8.25884e-05 0 0 0 0 0 0 0 0 0 0 0 0 0 0 0 0 0 159 0.00159 
3653 6 0.00259955 0.0748134 0.0201384 0 0 0 -0.119879 0.147981 -0.232046 5.37037e-05 -0.000213219 -5.8092e-05 0 0 0 0 0 1 0 0 0 0 0 0 0 0 0 0 164 0.00159 
2329 1 0.00262381 0.0654683 0.0217723 0 0 0 -0.0264189 -0.0592885 -0.0436018 0 -8.25884e-05 0 0 0 0 0 0 0 0 0 0 0 0 0 0 0 0 0 188 0.00159 
2540 1 0.00517897 0.0672183 0.0227562 0 0 0 0.0395726 0.02919 -0.131178 0 -8.25884e-05 0 0 0 0 0 0 0 0 0 0 0 0 0 0 0 0 0 219 0.00159 
4257 3 0.0170053 0.0690892 0.0220231 0 0 0 -0.286574 -0.0108817 -0.067438 0 -8.25884e-05 0 0 0 0 0 0 0 0 0 0 0 0 0 0 0 0 0 95 0.00159 
3256 4 0.0111939 0.0700531 0.0220038 0 0 0 0.026597 0.0550701 -0.250804 -0.000192046 -0.000839901 -0.00044211 0 0 0 1 0 0 0 0 0 0 0 0 0 0 0 0 192 0.00159 
552 1 0.00499985 0.0731945 0.0214584 0 0 0 0.0756181 0.203756 -0.261989 -0.000277873 -0.000495266 -0.00023255 1 0 0 0 0 0 0 0 0 0 0 0 0 0 0 0 246 0.00159 
1923 4 0.00804552 0.0743776 0.0223708 0 0 0 -0.00678797 -0.0964952 -0.104986 0 -8.25884e-05 0 0 0 0 0 0 0 0 0 0 0 0 0 0 0 0 0 263 0.00159 