ITEM: TIMESTEP
20000000
ITEM: NUMBER OF ATOMS
4538
ITEM: BOX BOUNDS ff ff ff
-0.01 0.45
-0.15 0.15
-0.08 0.1
ITEM: ATOMS id type x y z ix iy iz vx vy vz fx fy fz c_cc_1 c_cc_2 c_cc_3 c_cc_4 c_cc_5 c_cc_6 c_cc_7 c_cc_8 c_cc_9 c_cc_10 c_cc_11 c_cc_12 c_cc_13 c_cc_14 c_cc_15 c_cc_16 f_fppacc radius 
4220 3 0.010776 -0.0452065 -0.0363908 0 0 0 0.859248 -7.04366 8.59483 0 -8.25884e-05 0 0 0 0 0 0 0 0 0 0 0 0 0 0 0 0 0 74 0.00159 
3803 1 0.00381272 -0.0456146 -0.0358818 0 0 0 0.581555 -7.57544 9.24569 0 -8.25884e-05 0 0 0 0 0 0 0 0 0 0 0 0 0 0 0 0 0 105 0.00159 
2702 5 0.0138305 -0.0472491 -0.0383293 0 0 0 1.14879e-06 1.99834e-12 1.82173e-12 -5.76235e-18 0 8.88178e-16 0 0 0 0 0 0 0 0 0 0 0 0 0 0 0 0 1 0.00159 
4913 2 0.00600968 -0.0582318 -0.00249721 0 0 0 -9.69588 -1.84362 23.9581 0.255689 0.511298 0.000964196 0 0 0 0 0 0 0 0 0 0 0 0 0 0 0 0 1 0.00159 
2831 2 0.0162472 -0.057593 0.00146573 0 0 0 1.39194 -1.19828 16.9612 0 -8.25884e-05 0 0 0 0 0 0 0 0 0 0 0 0 0 0 0 0 0 133 0.00159 
3753 5 0.0113668 -0.0432915 0.0244202 0 0 0 2.78575 6.04583 6.65328 0 -8.25884e-05 0 0 0 0 0 0 0 0 0 0 0 0 0 0 0 0 0 123 0.00159 
4928 1 0.00993464 -0.0474748 0.02444 0 0 0 2.89212 3.84475 6.2799 0 -8.25884e-05 0 0 0 0 0 0 0 0 0 0 0 0 0 0 0 0 0 0 0.00159 
2145 6 0.00683198 -0.0516289 0.0267875 0 0 0 0.0481049 3.04567 3.02621 0 -8.25884e-05 0 0 0 0 0 0 0 0 0 0 0 0 0 0 0 0 0 233 0.00159 
4375 8 0.00488846 -0.0454717 0.0268824 0 0 0 3.52055 11.0341 6.21738 0 -8.25884e-05 0 0 0 0 0 0 0 0 0 0 0 0 0 0 0 0 0 54 0.00159 
2415 1 0.00287796 -0.0491089 0.0295119 0 0 0 0.775527 5.03378 5.00507 0 -8.25884e-05 0 0 0 0 0 0 0 0 0 0 0 0 0 0 0 0 0 180 0.00159 
4588 1 0.0152146 -0.0448447 0.037233 0 0 0 5.58767 9.74614 9.94676 -0.00342553 0.149186 -0.139695 0 0 0 0 0 0 0 0 0 0 0 0 0 0 0 0 24 0.00159 
4841 7 0.00791713 -0.0459853 0.0353651 0 0 0 1.28901 2.83352 3.8577 0 -8.25884e-05 0 0 0 0 0 0 0 0 0 0 0 0 0 0 0 0 0 3 0.00159 
59 2 0.0104752 -0.0204156 -0.0573418 0 0 0 6.01501e-06 -1.84254e-12 -6.47585e-12 8.26859e-17 0 0 0 0 0 0 0 0 0 0 0 0 0 0 0 0 0 0 0 0.00159 
376 1 0.0122345 -0.0304011 -0.0527154 0 0 0 -2.7325e-06 -1.50505e-13 -3.02262e-13 8.07645e-17 0 0 0 0 0 0 0 0 0 0 0 0 0 0 0 0 0 0 14 0.00159 
1714 1 0.0173604 -0.0343211 -0.0501953 0 0 0 -9.75657e-07 1.26797e-12 1.67917e-12 -5.53295e-16 0 0 0 0 0 0 0 0 0 0 0 0 0 0 0 0 0 0 20 0.00159 
3281 3 0.0149208 -0.0342762 -0.0470224 0 0 0 0.601007 -7.802 6.66854 -0.00312398 0.00297486 0.00612528 0 0 0 0 0 0 0 0 0 0 0 0 0 0 0 0 98 0.00159 
1694 1 0.00904443 -0.00302805 -0.0486271 0 0 0 0.171089 -1.54826 -0.528234 0 -8.25884e-05 0 0 0 0 0 0 0 0 0 0 0 0 0 0 0 0 0 216 0.00159 
2966 1 0.0141217 -0.0367569 -0.0437944 0 0 0 -0.023561 -2.86747 3.25264 0 -8.25884e-05 0 0 0 0 0 0 0 0 0 0 0 0 0 0 0 0 0 154 0.00159 
983 4 0.00275161 -0.00774882 -0.039876 0 0 0 0.312955 -8.9869 -4.94597 0 -8.25884e-05 0 0 0 0 0 0 0 0 0 0 0 0 0 0 0 0 0 254 0.00159 
2672 2 0.0155405 -0.0347647 -0.0284728 0 0 0 0.173497 -0.914774 1.5703 0 -8.25884e-05 0 0 0 0 0 0 0 0 0 0 0 0 0 0 0 0 0 212 0.00159 
1497 2 0.0151154 -0.0344838 0.00419327 0 0 0 -3.54659 0.694831 14.9749 0 -8.25884e-05 0 0 0 0 0 0 0 0 0 0 0 0 0 0 0 0 0 252 0.00159 
777 3 0.0123474 -0.0271407 0.0275528 0 0 0 1.25204 3.11187 3.99392 0 -8.25884e-05 0 0 0 0 0 0 0 0 0 0 0 0 0 0 0 0 0 254 0.00159 
4553 6 0.00579118 -0.0122938 0.0490077 0 0 0 -1.76832 13.9997 10.8398 0 -8.25884e-05 0 0 0 0 0 0 0 0 0 0 0 0 0 0 0 0 0 45 0.00159 
4015 1 0.0102675 -0.0313938 0.0488549 0 0 0 1.76319 5.80368 3.93406 0 -8.25884e-05 0 0 0 0 0 0 0 0 0 0 0 0 0 0 0 0 0 35 0.00159 
4023 2 0.00542621 -0.0151534 0.0560123 0 0 0 -0.647916 10.711 2.43052 0 -8.25884e-05 0 0 0 0 0 0 0 0 0 0 0 0 0 0 0 0 0 43 0.00159 
4066 2 0.00410081 -0.00372163 0.0580933 0 0 0 0.573558 8.21937 0.598779 -0.0106708 0.00545727 -0.0752153 0 0 0 0 0 0 0 0 0 0 0 0 0 0 0 0 92 0.00159 
940 7 0.00706365 0.0329836 -0.0512411 0 0 0 -0.00706284 0.00230197 0.001709 0.000768709 -0.000405412 -0.000309075 0 0 0 0 0 0 1 0 0 0 0 0 0 0 0 0 84 0.00159 
3693 6 0.00997289 0.0322367 -0.0517676 0 0 0 0.000536166 -0.0042433 -0.00411967 0.000719801 0.0012256 0.0010519 0 0 0 0 0 1 1 0 0 0 0 0 0 0 0 0 90 0.00159 
1285 2 0.0130707 0.0325485 -0.0514545 0 0 0 -0.0442023 0.000194896 0.00144962 0.0178006 -0.000531569 -0.000589889 0 0 0 0 0 1 0 0 0 0 0 0 0 0 0 0 232 0.00159 
4587 12 0.00394986 0.0288999 -0.0463844 0 0 0 0.253883 -1.53086 -0.415333 0 -8.25884e-05 0 0 0 0 0 0 0 0 0 0 0 0 0 0 0 0 0 17 0.00159 
2609 1 0.0138547 0.0107825 -0.0426437 0 0 0 0.440718 -1.9183 -0.52242 0 -8.25884e-05 0 0 0 0 0 0 0 0 0 0 0 0 0 0 0 0 0 153 0.00159 
2587 1 0.00962288 0.0326969 -0.0359702 0 0 0 0.0535 -1.43931 -0.272968 0 -8.25884e-05 0 0 0 0 0 0 0 0 0 0 0 0 0 0 0 0 0 187 0.00159 
3205 4 0.0122532 0.0175741 -0.0337665 0 0 0 0.0563126 -1.3069 -0.440154 0 -8.25884e-05 0 0 0 0 0 0 0 0 0 0 0 0 0 0 0 0 0 160 0.00159 
4067 5 0.00340158 0.0361044 -0.0349084 0 0 0 -0.319089 -1.62579 -0.2702 0 -8.25884e-05 0 0 0 0 0 0 0 0 0 0 0 0 0 0 0 0 0 89 0.00159 
3420 9 0.00423152 0.0323347 -0.0319817 0 0 0 0.154121 -1.21556 -0.303272 0 -8.25884e-05 0 0 0 0 0 0 0 0 0 0 0 0 0 0 0 0 0 159 0.00159 
500 1 0.012688 0.029391 -0.0294752 0 0 0 0.397011 -1.53871 0.140712 0 -8.25884e-05 0 0 0 0 0 0 0 0 0 0 0 0 0 0 0 0 0 268 0.00159 
2840 3 0.0155799 0.0359731 -0.0265156 0 0 0 0.621344 -2.26092 0.318249 0 -8.25884e-05 0 0 0 0 0 0 0 0 0 0 0 0 0 0 0 0 0 202 0.00159 
4010 5 0.0180508 0.031034 -0.0232634 0 0 0 0.626128 -1.00565 0.308195 0 -8.25884e-05 0 0 0 0 0 0 0 0 0 0 0 0 0 0 0 0 0 101 0.00159 
2557 5 0.00499414 0.0342605 -0.0228643 0 0 0 -0.204136 -3.19034 0.266226 0 -8.25884e-05 0 0 0 0 0 0 0 0 0 0 0 0 0 0 0 0 0 221 0.00159 
4637 5 0.00509464 0.0291012 -0.0194343 0 0 0 0.134781 -1.72562 0.517979 0 -8.25884e-05 0 0 0 0 0 0 0 0 0 0 0 0 0 0 0 0 0 41 0.00159 
2830 3 0.0120588 0.0291953 -0.0166772 0 0 0 -0.18869 -1.07635 0.497839 0 -8.25884e-05 0 0 0 0 0 0 0 0 0 0 0 0 0 0 0 0 0 180 0.00159 
46 2 0.0149928 0.0313982 -0.0490891 0 0 0 0.751482 -16.9894 -11.9455 0 -8.25884e-05 0 0 0 0 0 0 0 0 0 0 0 0 0 0 0 0 0 229 0.00159 
637 7 0.00325699 0.034914 0.0113991 0 0 0 0.063517 -0.663849 1.00221 0 -8.25884e-05 0 0 0 0 0 0 0 0 0 0 0 0 0 0 0 0 0 267 0.00159 
3402 1 0.00622633 0.02225 0.0482541 0 0 0 -13.2269 29.7962 5.74211 0 -8.25884e-05 0 0 0 0 0 0 0 0 0 0 0 0 0 0 0 0 0 166 0.00159 
3698 5 0.00714126 0.0336996 0.0474305 0 0 0 2.94102 9.42331 -7.98718 0.000783846 0.027008 0.0230065 0 0 0 0 0 0 0 0 0 0 0 0 0 0 0 0 131 0.00159 
1562 6 0.00321154 0.0197335 0.054839 0 0 0 0.937572 7.34732 -2.20531 0 -8.25884e-05 0 0 0 0 0 0 0 0 0 0 0 0 0 0 0 0 0 264 0.00159 
3986 3 0.00861273 0.0171645 0.0550925 0 0 0 0.759547 4.17342 -1.6392 0 -8.25884e-05 0 0 0 0 0 0 0 0 0 0 0 0 0 0 0 0 0 51 0.00159 
1366 5 0.0117583 0.00789749 0.057457 0 0 0 -0.122922 9.5606 -2.72052 0 -8.25884e-05 0 0 0 0 0 0 0 0 0 0 0 0 0 0 0 0 0 180 0.00159 
2725 7 0.00376958 0.0145429 0.0561592 0 0 0 1.15516 7.36985 -2.61676 0 -8.25884e-05 0 0 0 0 0 0 0 0 0 0 0 0 0 0 0 0 0 207 0.00159 
2353 3 0.0143219 0.00793095 0.0540202 0 0 0 6.22085 19.6056 -10.1415 0 -8.25884e-05 0 0 0 0 0 0 0 0 0 0 0 0 0 0 0 0 0 184 0.00159 
623 5 0.00874286 0.00296554 0.0581425 0 0 0 0.436463 8.4572 -1.37629 -0.00740985 0.011077 0.0195444 0 0 0 0 0 0 0 0 0 0 0 0 0 0 0 0 319 0.00159 
3279 6 0.0104583 0.0748854 -0.0260551 0 0 0 4.50115 -2.15218 -1.37907 0 -8.25884e-05 0 0 0 0 0 0 0 0 0 0 0 0 0 0 0 0 0 147 0.00159 
3142 3 0.00377836 0.0400501 -0.0366502 0 0 0 0.226665 -1.34086 -0.482218 0 -8.25884e-05 0 0 0 0 0 0 0 0 0 0 0 0 0 0 0 0 0 134 0.00159 
613 7 0.0124936 0.0529268 -0.0355 0 0 0 -1.17088e-06 1.47016e-08 -6.07667e-13 1.65595e-08 -2.09326e-10 -6.92779e-14 0 0 0 0 0 0 1 0 0 0 0 0 0 0 0 0 347 0.00159 
111 4 0.0125332 0.0560792 -0.0355 0 0 0 1.17088e-06 -1.47021e-08 -2.64727e-12 -1.65607e-08 2.0654e-10 5.96856e-13 0 0 0 0 0 0 1 0 0 0 0 0 0 0 0 0 349 0.00159 
208 4 0.0181812 0.0545586 -0.0355 0 0 0 3.72893e-118 2.78726e-19 -6.20589e-12 1.02421e-118 0 0 0 0 0 0 0 0 0 0 0 0 0 0 0 0 0 0 6 0.00159 
303 5 0.010413 0.0597897 -0.0355 0 0 0 2.09813e-129 9.85499e-20 4.83384e-12 -6.35718e-129 0 0 0 0 0 0 0 0 0 0 0 0 0 0 0 0 0 0 2 0.00159 
594 5 0.0161464 0.0584898 -0.0354907 0 0 0 -1.6903e-05 -0.000310109 -4.19762e-07 2.79568e-07 6.96519e-06 -6.59362e-09 0 0 0 0 1 0 0 0 0 0 0 0 0 0 0 0 321 0.00159 
81 9 0.0186357 0.0582367 -0.0355097 0 0 0 0.000174957 0.00074335 4.66547e-07 -3.8723e-06 -1.6462e-05 8.93752e-09 0 0 0 0 1 0 0 0 1 0 0 0 0 0 0 0 486 0.00159 
2710 1 0.0135873 0.0628074 -0.0355 0 0 0 2.21962e-69 6.57362e-20 4.1439e-12 -1.12219e-71 0 -1.77636e-15 0 0 0 0 0 0 0 0 0 0 0 0 0 0 0 0 5 0.00159 
97 2 0.00859984 0.068089 -0.0355 0 0 0 -2.13281e-88 -6.55739e-20 -6.93996e-13 2.96154e-88 0 1.77636e-15 0 0 0 0 0 0 0 0 0 0 0 0 0 0 0 0 3 0.00159 
1529 10 0.0120372 0.0680331 -0.0355 0 0 0 8.08831e-44 2.95182e-19 3.44576e-12 -5.66423e-44 0 1.77636e-15 0 0 0 0 0 0 0 0 0 0 0 0 0 0 0 0 14 0.00159 
4904 4 0.00563262 0.0429372 -0.0346196 0 0 0 0.116178 -1.14249 -0.261212 0 -8.25884e-05 0 0 0 0 0 0 0 0 0 0 0 0 0 0 0 0 0 0 0.00159 
1013 2 0.00333712 0.0664266 -0.0331223 0 0 0 0.16534 -0.0770373 0.055296 0 -8.25884e-05 0 0 0 0 0 0 0 0 0 0 0 0 0 0 0 0 0 265 0.00159 
2895 5 0.00263355 0.0697283 -0.0334468 0 0 0 -0.0524602 -0.0741376 0.268448 0.00970851 -0.0102373 -0.0155056 0 0 0 0 1 0 0 0 0 0 0 0 0 0 0 0 152 0.00159 
2812 11 0.00258528 0.0743966 -0.0331472 0 0 0 0.0913238 -1.21222 0.0884744 -0.00152879 -0.000238973 -0.000381001 0 0 0 0 0 0 0 0 0 0 1 0 0 0 0 0 75 0.00159 
2163 4 0.00568212 0.0734655 -0.033452 0 0 0 0.455761 -0.921017 0.658806 -0.00283633 0.0350396 0.0125962 0 0 0 3 0 0 0 0 0 0 0 0 0 0 0 0 233 0.00159 
4852 10 0.0147087 0.0733769 -0.0331473 0 0 0 -1.21119 -0.96854 0.353979 0 -8.25884e-05 0 0 0 0 0 0 0 0 0 0 0 0 0 0 0 0 0 0 0.00159 
726 3 0.0152401 0.0542727 -0.0325389 0 0 0 -0.630439 -0.823083 0.215402 0 -8.25884e-05 0 0 0 0 0 0 0 0 0 0 0 0 0 0 0 0 0 243 0.00159 
332 1 0.0102134 0.0569052 -0.0329848 0 0 0 0.264466 -0.331471 0.0441066 0 -8.25884e-05 0 0 0 0 0 0 0 0 0 0 0 0 0 0 0 0 0 253 0.00159 
368 4 0.00258088 0.0593416 -0.0329799 0 0 0 0.172886 -0.700891 0.250753 0.000658675 -0.00040571 -6.36828e-05 0 0 0 0 0 0 0 0 0 0 0 0 0 0 0 0 258 0.00159 
2843 5 0.0129378 0.058362 -0.0319872 0 0 0 0.114575 0.251406 1.34057 0 -8.25884e-05 0 0 0 0 0 0 0 0 0 0 0 0 0 0 0 0 0 211 0.00159 
1946 3 0.00661067 0.0649385 -0.0326311 0 0 0 -0.310404 -0.933219 -0.0222201 0 -8.25884e-05 0 0 0 0 0 0 0 0 0 0 0 0 0 0 0 0 0 256 0.00159 
3282 2 0.0107731 0.0638803 -0.0316631 0 0 0 -0.166683 -1.18799 0.150262 0 -8.25884e-05 0 0 0 0 0 0 0 0 0 0 0 0 0 0 0 0 0 135 0.00159 
749 3 0.00685253 0.0678047 -0.0312326 0 0 0 -0.605404 -1.07559 0.373646 0.00888942 -0.0384943 0.0098065 0 0 1 0 0 0 0 0 0 0 0 0 0 0 0 0 243 0.00159 
4921 1 0.00582511 0.0705564 -0.0323627 0 0 0 -0.0216925 -1.26967 0.133061 0.00278384 -0.0279473 0.0319456 1 0 1 1 0 0 0 0 0 0 0 0 0 0 0 0 3 0.00159 
2017 5 0.0101651 0.0684266 -0.0312927 0 0 0 -0.128542 -2.75034 -0.698373 -0.00843686 0.0086437 -0.00830839 0 0 0 0 1 0 0 0 0 0 0 0 0 0 0 0 273 0.00159 
2581 3 0.0148581 0.0699983 -0.0327806 0 0 0 -1.58069 -1.23483 0.677912 0 -8.25884e-05 0 0 0 0 0 0 0 0 0 0 0 0 0 0 0 0 0 174 0.00159 
3844 6 0.00333189 0.0417237 -0.0301881 0 0 0 0.340977 -0.65544 -0.188306 0 -8.25884e-05 0 0 0 0 0 0 0 0 0 0 0 0 0 0 0 0 0 112 0.00159 
3030 3 0.00598073 0.0467461 -0.031174 0 0 0 0.130662 -0.818559 -1.90119 0 -8.25884e-05 0 0 0 0 0 0 0 0 0 0 0 0 0 0 0 0 0 134 0.00159 
2281 5 0.00706345 0.0512517 -0.0310223 0 0 0 0.659938 -0.791057 0.293997 0 -8.25884e-05 0 0 0 0 0 0 0 0 0 0 0 0 0 0 0 0 0 215 0.00159 
2579 1 0.00862986 0.0618169 -0.0303855 0 0 0 -1.11934 -0.56322 0.433318 0 -8.25884e-05 0 0 0 0 0 0 0 0 0 0 0 0 0 0 0 0 0 142 0.00159 
4925 3 0.0169718 0.0598323 -0.0283117 0 0 0 -2.5514 -6.98701 3.59199 0 -8.25884e-05 0 0 0 0 0 0 0 0 0 0 0 0 0 0 0 0 0 0 0.00159 
4074 1 0.0116508 0.0664701 -0.0293235 0 0 0 0.318495 -1.09672 1.15567 0.00843686 -0.00880888 0.00830839 0 0 0 0 1 0 0 0 0 0 0 0 0 0 0 0 94 0.00159 
2161 10 0.00324683 0.0706031 -0.0305416 0 0 0 0.553402 -0.736981 1.03669 -0.00201912 -0.00287623 0.0182267 1 0 0 0 1 0 0 0 0 1 0 0 0 0 0 0 215 0.00159 
3225 3 0.0128315 0.0697528 -0.0290854 0 0 0 -3.03413 -0.628806 1.42461 0 -8.25884e-05 0 0 0 0 0 0 0 0 0 0 0 0 0 0 0 0 0 128 0.00159 
3456 4 0.0090725 0.071381 -0.0325965 0 0 0 -0.04687 -2.47772 -5.23247 0 -8.25884e-05 0 0 0 0 0 0 0 0 0 0 0 0 0 0 0 0 0 139 0.00159 
2187 7 0.00466782 0.0735877 -0.0304857 0 0 0 -2.25637 1.32899 1.0943 0.00913036 0.0145783 0.0139728 0 0 0 1 0 0 0 0 0 0 0 0 0 0 0 0 235 0.00159 
3099 7 0.0112052 0.0446284 -0.0270616 0 0 0 0.352812 -3.75254 1.9333 0 -8.25884e-05 0 0 0 0 0 0 0 0 0 0 0 0 0 0 0 0 0 159 0.00159 
2615 3 0.00670475 0.0483661 -0.0281655 0 0 0 1.1664 -1.56824 -0.302715 0 -8.25884e-05 0 0 0 0 0 0 0 0 0 0 0 0 0 0 0 0 0 179 0.00159 
471 5 0.00853516 0.0656123 -0.029351 0 0 0 -0.333134 -1.11941 -0.152069 0 -8.25884e-05 0 0 0 0 0 0 0 0 0 0 0 0 0 0 0 0 0 270 0.00159 
2559 6 0.00261676 0.0666317 -0.0282594 0 0 0 -0.168437 -3.29695 -0.120484 -0.0282533 0.0191065 -0.00906826 0 0 0 0 0 1 0 0 0 0 0 0 0 0 0 0 209 0.00159 
1410 2 0.00859424 0.0602701 -0.0274402 0 0 0 -1.10173 0.090393 -2.09544 0 -8.25884e-05 0 0 0 0 0 0 0 0 0 0 0 0 0 0 0 0 0 241 0.00159 
2441 4 0.00690355 0.0629604 -0.0269499 0 0 0 -0.456599 0.874208 0.173474 0 -8.25884e-05 0 0 0 0 0 0 0 0 0 0 0 0 0 0 0 0 0 202 0.00159 
4260 3 0.00563374 0.0662786 -0.0274491 0 0 0 0.159801 -0.681899 0.0512686 0.0282533 -0.0192716 0.00906826 0 0 0 0 0 1 0 0 0 0 0 0 0 0 0 0 72 0.00159 
3744 2 0.0170534 0.0672286 -0.0255569 0 0 0 0.642116 -2.866 1.79785 0 -8.25884e-05 0 0 0 0 0 0 0 0 0 0 0 0 0 0 0 0 0 126 0.00159 
3857 3 0.00258164 0.0711359 -0.0275564 0 0 0 0.310015 0.537796 1.23985 -0.0103653 0.0191588 0.0786542 0 0 1 0 0 0 0 0 0 1 0 0 0 0 0 0 89 0.00159 
1307 2 0.00682714 0.0692527 -0.0267702 0 0 0 0.296844 -0.404725 0.305151 0 -8.25884e-05 0 0 0 0 0 0 0 0 0 0 0 0 0 0 0 0 0 234 0.00159 
4063 7 0.00507751 0.073088 -0.0273878 0 0 0 3.09008 -2.44168 0.962063 -0.0143128 -0.0114345 -0.031353 0 0 1 0 0 0 0 0 0 0 0 0 0 0 0 0 50 0.00159 
3361 15 0.00878296 0.0717224 -0.0286907 0 0 0 0.557947 -3.37548 -3.72351 0 -8.25884e-05 0 0 0 0 0 0 0 0 0 0 0 0 0 0 0 0 0 126 0.00159 
1163 7 0.00281558 0.0430169 -0.0238467 0 0 0 -0.45558 -1.29529 -0.121923 0 -8.25884e-05 0 0 0 0 0 0 0 0 0 0 0 0 0 0 0 0 0 306 0.00159 
4827 9 0.007705 0.0484647 -0.023359 0 0 0 -0.651908 -0.409163 1.66625 0 -8.25884e-05 0 0 0 0 0 0 0 0 0 0 0 0 0 0 0 0 0 0 0.00159 
2225 6 0.0129343 0.0528567 -0.0226412 0 0 0 0.292764 -0.365275 2.41292 0 -8.25884e-05 0 0 0 0 0 0 0 0 0 0 0 0 0 0 0 0 0 154 0.00159 
1257 2 0.00876642 0.0618163 -0.024159 0 0 0 -1.6255 -2.42131 1.67619 0 -8.25884e-05 0 0 0 0 0 0 0 0 0 0 0 0 0 0 0 0 0 242 0.00159 
2382 4 0.0135624 0.0626263 -0.0240372 0 0 0 -0.091969 -0.289041 0.251083 0 -8.25884e-05 0 0 0 0 0 0 0 0 0 0 0 0 0 0 0 0 0 180 0.00159 
3393 3 0.0037774 0.0642243 -0.0253893 0 0 0 -0.834584 -0.785837 -0.408301 0 -8.25884e-05 0 0 0 0 0 0 0 0 0 0 0 0 0 0 0 0 0 99 0.00159 
728 1 0.00636657 0.0721206 -0.0243324 0 0 0 0.418866 0.207976 0.0850483 0 -8.25884e-05 0 0 0 0 0 0 0 0 0 0 0 0 0 0 0 0 0 277 0.00159 
4823 3 0.00604577 0.0401421 -0.0232123 0 0 0 0.0881316 -1.80958 0.888372 0 -8.25884e-05 0 0 0 0 0 0 0 0 0 0 0 0 0 0 0 0 0 1 0.00159 
4906 7 0.00545176 0.0456002 -0.0244594 0 0 0 0.847339 -2.02241 -1.58996 0 -8.25884e-05 0 0 0 0 0 0 0 0 0 0 0 0 0 0 0 0 0 0 0.00159 
4312 4 0.00274622 0.055744 -0.0229356 0 0 0 1.09355 -3.57892 0.4016 0 -8.25884e-05 0 0 0 0 0 0 0 0 0 0 0 0 0 0 0 0 0 28 0.00159 
3295 3 0.0136447 0.0571748 -0.0233961 0 0 0 1.69246 -3.27875 -0.36077 0 -8.25884e-05 0 0 0 0 0 0 0 0 0 0 0 0 0 0 0 0 0 146 0.00159 
198 3 0.00338186 0.0708954 -0.0219281 0 0 0 -0.0283189 0.488365 0.939917 0 -8.25884e-05 0 0 0 0 0 0 0 0 0 0 0 0 0 0 0 0 0 250 0.00159 
1143 1 0.0168826 0.0723701 -0.0205426 0 0 0 -1.98469 -1.64187 0.284408 0 -8.25884e-05 0 0 0 0 0 0 0 0 0 0 0 0 0 0 0 0 0 281 0.00159 
2045 1 0.011635 0.0638639 -0.0182319 0 0 0 -0.0227239 -1.36515 0.774896 0 -8.25884e-05 0 0 0 0 0 0 0 0 0 0 0 0 0 0 0 0 0 269 0.00159 
2490 8 0.00572548 0.039269 -0.0175481 0 0 0 0.123921 -2.0584 -0.424129 0 -8.25884e-05 0 0 0 0 0 0 0 0 0 0 0 0 0 0 0 0 0 239 0.00159 
4491 12 0.00402205 0.0704103 -0.0174017 0 0 0 0.457085 -0.45542 1.19361 0 -8.25884e-05 0 0 0 0 0 0 0 0 0 0 0 0 0 0 0 0 0 75 0.00159 
2288 10 0.00941379 0.0718016 -0.0174766 0 0 0 0.105174 -0.147584 1.10862 0 -8.25884e-05 0 0 0 0 0 0 0 0 0 0 0 0 0 0 0 0 0 231 0.00159 
506 1 0.00274799 0.0478185 -0.0166508 0 0 0 -1.01114 -0.146565 -4.21169 0.033985 -0.0054087 0.0598877 1 0 0 0 0 0 0 0 0 0 0 0 0 0 0 0 240 0.00159 
2664 2 0.00273606 0.0651533 -0.0132296 0 0 0 -1.07893 -0.794153 1.7213 0 -8.25884e-05 0 0 0 0 0 0 0 0 0 0 0 0 0 0 0 0 0 173 0.00159 
4430 2 0.00689523 0.0450241 -0.0144857 0 0 0 0.352186 -0.622021 -7.19786 0 -8.25884e-05 0 0 0 0 0 0 0 0 0 0 0 0 0 0 0 0 0 61 0.00159 
2952 3 0.00367565 0.0492285 -0.0140041 0 0 0 2.39863 4.01355 -4.73384 -0.033985 0.00524352 -0.0598877 1 0 0 0 0 0 0 0 0 0 0 0 0 0 0 0 200 0.00159 
168 2 0.0136585 0.0489478 -0.010117 0 0 0 0.41676 2.51547 -3.2797 0 -8.25884e-05 0 0 0 0 0 0 0 0 0 0 0 0 0 0 0 0 0 253 0.00159 
1321 13 0.00892971 0.0612046 -0.00563404 0 0 0 -1.15944 0.214162 2.39282 0 -8.25884e-05 0 0 0 0 0 0 0 0 0 0 0 0 0 0 0 0 0 277 0.00159 
43 5 0.00662241 0.038209 -0.00213595 0 0 0 -1.34592 -1.39683 1.98178 0 -8.25884e-05 0 0 0 0 0 0 0 0 0 0 0 0 0 0 0 0 0 306 0.00159 
2200 2 0.0141557 0.0709215 -0.00543811 0 0 0 -4.18603 4.97761 -7.07067 0 -8.25884e-05 0 0 0 0 0 0 0 0 0 0 0 0 0 0 0 0 0 221 0.00159 
4853 7 0.00819919 0.0663986 0.000517841 0 0 0 -0.0501555 -0.164911 -1.17677 0 -8.25884e-05 0 0 0 0 0 0 0 0 0 0 0 0 0 0 0 0 0 1 0.00159 
93 1 0.0125275 0.0672369 -0.00079121 0 0 0 -1.95155 2.16995 -7.14005 0 -8.25884e-05 0 0 0 0 0 0 0 0 0 0 0 0 0 0 0 0 0 261 0.00159 
946 4 0.0138472 0.0616588 0.00348306 0 0 0 -4.4537 1.04881 -3.94895 0 -8.25884e-05 0 0 0 0 0 0 0 0 0 0 0 0 0 0 0 0 0 244 0.00159 
450 3 0.0169188 0.0718401 0.0063871 0 0 0 -2.64416 1.22478 -3.41071 0 -8.25884e-05 0 0 0 0 0 0 0 0 0 0 0 0 0 0 0 0 0 248 0.00159 
4885 8 0.00375195 0.0630881 0.00974356 0 0 0 0.350846 1.0671 0.388249 0 -8.25884e-05 0 0 0 0 0 0 0 0 0 0 0 0 0 0 0 0 0 0 0.00159 
4053 1 0.00485521 0.0682782 0.00907598 0 0 0 -0.335405 -0.187925 -1.48413 0 -8.25884e-05 0 0 0 0 0 0 0 0 0 0 0 0 0 0 0 0 0 2 0.00159 
2224 2 0.0138188 0.0717014 0.00962927 0 0 0 -0.574813 2.21676 -1.00277 0 -8.25884e-05 0 0 0 0 0 0 0 0 0 0 0 0 0 0 0 0 0 228 0.00159 
1598 1 0.0105375 0.0706615 0.00945781 0 0 0 -1.40375 0.734979 -1.77173 0 -8.25884e-05 0 0 0 0 0 0 0 0 0 0 0 0 0 0 0 0 0 253 0.00159 
164 5 0.0116742 0.0746992 -0.0324574 0 0 0 0.367118 -1.352 0.0735635 0 -8.25884e-05 0 0 0 0 0 0 0 0 0 0 0 0 0 0 0 0 0 308 0.00159 
1854 7 0.00627301 0.0742148 0.0334096 0 0 0 -0.0875765 -0.088511 0.00111243 4.24644e-05 0.00012561 0.000250298 0 0 0 0 0 0 1 0 0 0 0 0 0 0 0 0 246 0.00159 
1603 2 0.018743 0.0726955 0.0355069 0 0 0 3.76379e-05 9.78788e-05 -5.38343e-05 -4.1853e-06 -3.18936e-06 -2.01537e-06 0 1 0 0 0 0 0 0 0 0 0 0 0 0 0 0 137 0.00159 
535 5 0.00504871 0.0747042 0.0111281 0 0 0 -0.087872 0.00844723 -0.248235 0 -8.25884e-05 0 0 0 0 0 0 0 0 0 0 0 0 0 0 0 0 0 167 0.00159 
2146 8 0.0170923 0.0558109 0.0136302 0 0 0 -0.190701 -0.319076 2.65995 0 -8.25884e-05 0 0 0 0 0 0 0 0 0 0 0 0 0 0 0 0 0 231 0.00159 
2176 4 0.0158486 0.0747113 0.0119931 0 0 0 -0.701988 0.667446 -1.11797 0 -8.25884e-05 0 0 0 0 0 0 0 0 0 0 0 0 0 0 0 0 0 242 0.00159 
3531 8 0.0107095 0.0657316 0.0116302 0 0 0 -1.02728 1.26224 -4.81049 0 -8.25884e-05 0 0 0 0 0 0 0 0 0 0 0 0 0 0 0 0 0 182 0.00159 
2025 7 0.00444569 0.0699977 0.0145276 0 0 0 0.387618 -0.150143 -0.455692 0 -8.25884e-05 0 0 0 0 0 0 0 0 0 0 0 0 0 0 0 0 0 278 0.00159 
4920 1 0.0103623 0.0707036 0.0156211 0 0 0 1.31288 1.40898 1.01158 -0.001611 0.0045794 -0.00113218 1 0 0 0 0 0 0 0 0 0 0 0 0 0 0 0 1 0.00159 
2126 10 0.0131705 0.0709261 0.0132463 0 0 0 0.555359 0.321416 -1.1167 0 -8.25884e-05 0 0 0 0 0 0 0 0 0 0 0 0 0 0 0 0 0 209 0.00159 
1383 4 0.00557685 0.073163 0.0143967 0 0 0 -0.0199834 0.129294 -0.357948 0 -8.25884e-05 0 0 0 0 0 0 0 0 0 0 0 0 0 0 0 0 0 312 0.00159 
2103 7 0.0181789 0.0726532 0.0135792 0 0 0 0.0559583 0.626772 -1.03938 0 -8.25884e-05 0 0 0 0 0 0 0 0 0 0 0 0 0 0 0 0 0 283 0.00159 
3951 5 0.00877785 0.0733616 0.0148963 0 0 0 0.0759054 0.57026 -0.613248 0.001611 -0.00474458 0.00113218 1 0 0 0 0 0 0 0 0 0 0 0 0 0 0 0 123 0.00159 
4639 5 0.0116915 0.0743728 0.0138329 0 0 0 -0.0570941 0.275318 -0.701192 0 -8.25884e-05 0 0 0 0 0 0 0 0 0 0 0 0 0 0 0 0 0 50 0.00159 
2169 15 0.0165473 0.070802 0.0159211 0 0 0 -0.892597 0.39838 -1.22329 0 -8.25884e-05 0 0 0 0 0 0 0 0 0 0 0 0 0 0 0 0 0 283 0.00159 
4076 10 0.00268508 0.0726736 0.0170598 0 0 0 0.0355357 -0.17478 0.115343 0 -8.25884e-05 0 0 0 0 0 0 0 0 0 0 0 0 0 0 0 0 0 98 0.00159 
3214 5 0.0063616 0.0662783 0.0176105 0 0 0 0.00488973 -0.163281 -0.989148 0 -8.25884e-05 0 0 0 0 0 0 0 0 0 0 0 0 0 0 0 0 0 154 0.00159 
1773 7 0.00767191 0.0703682 0.0173703 0 0 0 -0.0356684 -0.202708 -0.632762 0 -8.25884e-05 0 0 0 0 0 0 0 0 0 0 0 0 0 0 0 0 0 270 0.00159 
49 6 0.00602022 0.0747063 0.0180612 0 0 0 0.0311885 -0.192328 -0.310915 0 -8.25884e-05 0 0 0 0 0 0 0 0 0 0 0 0 0 0 0 0 0 231 0.00159 
4387 2 0.0131814 0.0747947 0.0172307 0 0 0 -0.0227663 -0.0470321 -0.597124 0.000416408 -0.00184249 0.00208804 0 2 0 0 0 0 0 0 0 0 0 0 0 0 0 0 82 0.00159 
3839 4 0.00437199 0.0687593 0.0201042 0 0 0 0.00435389 -0.281329 0.183132 -0.00497791 0.0144706 -0.0183347 0 0 0 1 0 0 0 0 0 0 0 0 0 0 0 0 120 0.00159 
436 5 0.00813486 0.0680739 0.0197498 0 0 0 -0.238151 0.901918 -0.596764 0 -8.25884e-05 0 0 0 0 0 0 0 0 0 0 0 0 0 0 0 0 0 303 0.00159 
2555 5 0.0165784 0.0679313 0.0205816 0 0 0 -0.529556 0.511942 0.296272 0 -8.25884e-05 0 0 0 0 0 0 0 0 0 0 0 0 0 0 0 0 0 210 0.00159 
1895 7 0.0139073 0.0696485 0.021015 0 0 0 -0.803526 0.28291 -0.00947043 0 -8.25884e-05 0 0 0 0 0 0 0 0 0 0 0 0 0 0 0 0 0 248 0.00159 
4296 7 0.0048989 0.0721878 0.0197243 0 0 0 -0.00699378 -0.194312 -0.22298 0 -8.25884e-05 0 0 0 0 0 0 0 0 0 0 0 0 0 0 0 0 0 74 0.00159 
33 5 0.0138552 0.0728134 0.0197901 0 0 0 -0.354302 0.621071 0.106063 0 -8.25884e-05 0 0 0 0 0 0 0 0 0 0 0 0 0 0 0 0 0 247 0.00159 
2086 3 0.00258838 0.0741642 0.0210393 0 0 0 -0.0308322 -0.153674 -0.0962193 0.00223478 0.000934997 -0.000461607 0 0 0 0 0 0 0 0 0 0 0 0 0 0 0 0 245 0.00159 
3408 6 0.00880418 0.0730437 0.0194925 0 0 0 0.112364 -0.35288 -0.0985965 0 -8.25884e-05 0 0 0 0 0 0 0 0 0 0 0 0 0 0 0 0 0 132 0.00159 
2763 6 0.0172007 0.0746676 0.019826 0 0 0 -0.128081 0.0334547 -0.0825883 0.00232977 -0.00365187 0.00164613 0 0 0 0 0 2 0 0 0 0 0 0 0 0 0 0 215 0.00159 
2825 1 0.00525155 0.0669991 0.0225655 0 0 0 0.177499 -0.329835 0.105805 0.00497791 -0.0146357 0.0183347 0 0 0 1 0 0 0 0 0 0 0 0 0 0 0 0 186 0.00159 
2157 2 0.0134838 0.0653939 0.0209535 0 0 0 -1.18384 -0.525681 -0.90997 0 -8.25884e-05 0 0 0 0 0 0 0 0 0 0 0 0 0 0 0 0 0 224 0.00159 
3973 2 0.00580709 0.0705957 0.022682 0 0 0 0.0739261 -0.11379 0.0895446 0 -8.25884e-05 0 0 0 0 0 0 0 0 0 0 0 0 0 0 0 0 0 114 0.00159 
944 1 0.00267685 0.0713198 0.0226569 0 0 0 0.0843721 0.118024 -0.0951337 0 -8.25884e-05 0 0 0 0 0 0 0 0 0 0 0 0 0 0 0 0 0 247 0.00159 
2645 7 0.00869509 0.0719682 0.0228726 0 0 0 0.173193 -0.206843 -0.018567 0 -8.25884e-05 0 0 0 0 0 0 0 0 0 0 0 0 0 0 0 0 0 245 0.00159 
34 3 0.0171817 0.0714907 0.0213327 0 0 0 -0.346066 0.0384069 -0.279997 0 -8.25884e-05 0 0 0 0 0 0 0 0 0 0 0 0 0 0 0 0 0 298 0.00159 
51 4 0.00545259 0.0746741 0.022403 0 0 0 0.0287466 -0.152206 -0.08583 0 -8.25884e-05 0 0 0 0 0 0 0 0 0 0 0 0 0 0 0 0 0 225 0.00159 
1599 2 0.0105191 0.0744645 0.0219782 0 0 0 0.0460078 -0.0442807 -0.0614588 0 -8.25884e-05 0 0 0 0 0 0 0 0 0 0 0 0 0 0 0 0 0 276 0.00159 
4421 3 0.0083861 0.0620032 0.02489 0 0 0 0.0783654 -0.223592 -0.209934 0 -8.25884e-05 0 0 0 0 0 0 0 0 0 0 0 0 0 0 0 0 0 58 0.00159 
4190 4 0.00327685 0.0646417 0.0240758 0 0 0 0.0270437 -0.0908219 -0.138349 0 -8.25884e-05 0 0 0 0 0 0 0 0 0 0 0 0 0 0 0 0 0 86 0.00159 
248 2 0.0088863 0.0657183 0.0247747 0 0 0 -0.113145 -0.29778 -0.18563 -0.00269067 -0.00151245 0.000627253 0 1 0 0 0 0 0 0 0 0 0 0 0 0 0 0 249 0.00159 
3701 1 0.00260517 0.0678132 0.0246981 0 0 0 0.00316137 -0.0759136 -0.11539 0 -8.25884e-05 0 0 0 0 0 0 0 0 0 0 0 0 0 0 0 0 0 136 0.00159 
2671 9 0.00845255 0.0690502 0.024282 0 0 0 0.235224 -0.183423 0.0930177 -0.00381304 -0.00824449 -0.0129969 0 0 0 0 0 0 0 0 1 0 0 0 0 0 0 0 237 0.00159 
472 9 0.0141712 0.0707039 0.0244967 0 0 0 0.0456142 -0.0634698 -0.127316 0 -8.25884e-05 0 0 0 0 0 0 0 0 0 0 0 0 0 0 0 0 0 352 0.00159 
1770 6 0.00794889 0.074764 0.0243806 0 0 0 -0.0422163 -0.163405 0.0253955 0 -8.25884e-05 0 0 0 0 0 0 0 0 0 0 0 0 0 0 0 0 0 300 0.00159 
4059 6 0.0132565 0.074102 0.0235578 0 0 0 -0.0226529 -0.0528946 -0.00278497 -0.00166072 0.000375157 -0.00126344 0 0 0 0 0 2 0 0 0 0 0 0 0 0 0 0 122 0.00159 
4708 5 0.0164697 0.0739421 0.0233211 0 0 0 0.00175871 0.0709232 0.00409346 0.000363025 -0.00346744 0.00293898 0 0 0 0 1 0 0 0 0 0 0 0 0 0 0 0 44 0.00159 
351 3 0.0151718 0.0449836 0.0273624 0 0 0 0.442189 -0.11485 2.59849 0 -8.25884e-05 0 0 0 0 0 0 0 0 0 0 0 0 0 0 0 0 0 249 0.00159 
257 7 0.00611255 0.0585396 0.0253045 0 0 0 -0.168284 -0.115195 -0.223572 0 -8.25884e-05 0 0 0 0 0 0 0 0 0 0 0 0 0 0 0 0 0 281 0.00159 
2550 15 0.00267129 0.0604022 0.0268357 0 0 0 0.00735965 -0.0977181 0.00738615 0 -8.25884e-05 0 0 0 0 0 0 0 0 0 0 0 0 0 0 0 0 0 198 0.00159 
1772 5 0.0125498 0.0608958 0.0259247 0 0 0 -0.155298 -0.146426 -0.177912 0 -8.25884e-05 0 0 0 0 0 0 0 0 0 0 0 0 0 0 0 0 0 245 0.00159 
2666 3 0.0159861 0.062197 0.0258856 0 0 0 -0.0953609 -0.0441476 -0.222454 0 -8.25884e-05 0 0 0 0 0 0 0 0 0 0 0 0 0 0 0 0 0 232 0.00159 
3997 8 0.00614458 0.0642966 0.0255211 0 0 0 -0.239362 -0.368329 0.001484 0.00269067 0.00134727 -0.000627253 0 1 0 0 0 0 0 0 0 0 0 0 0 0 0 0 126 0.00159 
1062 5 0.0145876 0.0651692 0.0268462 0 0 0 0.104309 -0.31815 -0.0449812 0.000123724 0.00391144 -0.00079621 0 0 0 0 1 0 0 0 0 0 0 0 0 0 0 0 247 0.00159 
968 5 0.0179778 0.0654267 0.0265953 0 0 0 -0.0951519 -0.249561 -0.137322 0 -8.25884e-05 0 0 0 0 0 0 0 0 0 0 0 0 0 0 0 0 0 266 0.00159 
3587 7 0.0164774 0.0692348 0.0265376 0 0 0 -0.0393341 -0.178 0.163033 0 -8.25884e-05 0 0 0 0 0 0 0 0 0 0 0 0 0 0 0 0 0 155 0.00159 
2792 11 0.00555235 0.0695641 0.025982 0 0 0 0.0237577 -0.315406 -0.048347 0 -8.25884e-05 0 0 0 0 0 0 0 0 0 0 0 0 0 0 0 0 0 212 0.00159 
2781 8 0.00836533 0.0709911 0.026762 0 0 0 -0.120448 -0.0190686 0.291087 -0.00694476 0.000636612 -0.00923354 0 0 0 0 0 0 0 1 1 0 0 0 0 0 0 0 252 0.00159 
808 2 0.0027179 0.0720602 0.025771 0 0 0 0.0169284 -0.234154 0.00561106 0 -8.25884e-05 0 0 0 0 0 0 0 0 0 0 0 0 0 0 0 0 0 253 0.00159 
4284 5 0.00584316 0.0727317 0.0256887 0 0 0 0.0470711 -0.302565 0.0096667 0 -8.25884e-05 0 0 0 0 0 0 0 0 0 0 0 0 0 0 0 0 0 87 0.00159 
1128 7 0.0109976 0.0723099 0.0250782 0 0 0 -0.0269133 -0.137888 0.0731438 0 -8.25884e-05 0 0 0 0 0 0 0 0 0 0 0 0 0 0 0 0 0 236 0.00159 
3983 1 0.0173912 0.0723603 0.0261286 0 0 0 -0.28199 -0.195319 0.168981 0.00187961 -0.00224915 -0.000644923 2 0 0 0 0 0 0 0 0 0 0 0 0 0 0 0 96 0.00159 
1755 4 0.0150369 0.0744796 0.0261592 0 0 0 -0.130481 -0.0703115 0.0747457 -0.00458107 0.00228059 0.00400638 1 0 0 1 0 1 0 0 0 0 0 0 0 0 0 0 294 0.00159 
4276 6 0.0092701 0.056695 0.0277178 0 0 0 0.0177885 -0.545947 0.1889 0 -8.25884e-05 0 0 0 0 0 0 0 0 0 0 0 0 0 0 0 0 0 84 0.00159 
4476 3 0.0178671 0.0607271 0.028461 0 0 0 0.0337937 -0.0987053 -0.198221 0 -8.25884e-05 0 0 0 0 0 0 0 0 0 0 0 0 0 0 0 0 0 69 0.00159 
1460 1 0.00993693 0.0618845 0.0276782 0 0 0 -0.0122218 -0.222484 -0.158621 0 -8.25884e-05 0 0 0 0 0 0 0 0 0 0 0 0 0 0 0 0 0 246 0.00159 
2482 6 0.0114367 0.0650773 0.0273898 0 0 0 -0.111107 -0.155886 -0.155136 -5.88684e-05 -0.000122177 5.5528e-05 0 0 0 0 0 1 0 0 0 0 0 0 0 0 0 0 224 0.00159 
1632 2 0.00281527 0.0658011 0.0272575 0 0 0 0.0102143 -0.104163 -0.119113 0 -8.25884e-05 0 0 0 0 0 0 0 0 0 0 0 0 0 0 0 0 0 210 0.00159 
3190 5 0.00694266 0.0669379 0.0271296 0 0 0 -0.0274944 -0.304104 -0.0140902 -0.00351022 0.00190791 -0.00267471 0 0 0 0 1 0 0 0 0 0 0 0 0 0 0 0 183 0.00159 
1898 3 0.010085 0.0681772 0.0275261 0 0 0 -0.0262526 -0.214996 -0.0601932 0 -8.25884e-05 0 0 0 0 0 0 0 0 0 0 0 0 0 0 0 0 0 252 0.00159 
409 8 0.0131454 0.0687918 0.0269028 0 0 0 -0.235796 -0.138886 -0.171375 0 -8.25884e-05 0 0 0 0 0 0 0 0 0 0 0 0 0 0 0 0 0 331 0.00159 
2254 3 0.00258965 0.069313 0.0275071 0 0 0 -0.00506593 -0.261243 -0.00222107 0.000239591 3.273e-05 -3.24439e-05 0 0 0 0 0 0 0 0 0 0 0 0 0 0 0 0 253 0.00159 
2320 3 0.0131964 0.0719379 0.0277271 0 0 0 -0.0130515 -0.107051 0.0345285 0 -8.25884e-05 0 0 0 0 0 0 0 0 0 0 0 0 0 0 0 0 0 84 0.00159 
1337 2 0.00259952 0.0737884 0.0285461 0 0 0 0.049455 -0.10484 -0.0132668 0 -8.25884e-05 0 0 0 0 0 0 0 0 0 0 0 0 0 0 0 0 0 253 0.00159 
390 6 0.00775056 0.0741124 0.0278286 0 0 0 -0.0383713 -0.164281 0.00973499 0 -8.25884e-05 0 0 0 0 0 0 0 0 0 0 0 0 0 0 0 0 0 276 0.00159 
2931 7 0.0109337 0.0742325 0.0277751 0 0 0 -0.0195836 -0.0566417 0.0188782 6.37764e-06 -0.00117015 0.00112925 0 0 0 0 0 0 2 0 0 0 0 0 0 0 0 0 227 0.00159 
658 2 0.00964777 0.0515995 0.0191848 0 0 0 8.54567 8.20102 -20.4149 0 -8.25884e-05 0 0 0 0 0 0 0 0 0 0 0 0 0 0 0 0 0 201 0.00159 
4166 2 0.00754786 0.058598 0.0305174 0 0 0 0.0850821 0.151845 0.176472 0 -8.25884e-05 0 0 0 0 0 0 0 0 0 0 0 0 0 0 0 0 0 65 0.00159 
1190 6 0.0140626 0.0596868 0.0297299 0 0 0 -0.0594828 -0.450042 -0.0519084 -0.00203229 -0.0120626 0.00672973 0 0 0 0 0 1 0 0 0 0 0 0 0 0 0 0 287 0.00159 
1700 8 0.00494594 0.0602801 0.0294783 0 0 0 -0.241045 -0.0615969 -0.0644949 0 -8.25884e-05 0 0 0 0 0 0 0 0 0 0 0 0 0 0 0 0 0 309 0.00159 
1347 2 0.00259952 0.0629404 0.0288618 0 0 0 0.00344369 -0.079546 -0.0538105 0 -8.25884e-05 0 0 0 0 0 0 0 0 0 0 0 0 0 0 0 0 0 237 0.00159 
3917 6 0.00577314 0.0633407 0.0291665 0 0 0 -0.0990727 -0.216226 0.0104707 0 -8.25884e-05 0 0 0 0 0 0 0 0 0 0 0 0 0 0 0 0 0 112 0.00159 