ITEM: TIMESTEP
20000000
ITEM: NUMBER OF ATOMS
6686
ITEM: BOX BOUNDS ff ff ff
-0.01 0.45
-0.15 0.15
-0.08 0.1
ITEM: ATOMS id type x y z ix iy iz vx vy vz fx fy fz c_cc_1 c_cc_2 c_cc_3 c_cc_4 c_cc_5 c_cc_6 c_cc_7 c_cc_8 c_cc_9 c_cc_10 c_cc_11 c_cc_12 c_cc_13 c_cc_14 c_cc_15 c_cc_16 f_fppacc radius 
2460 1 0.00851405 -0.0466583 -0.0389774 0 0 0 3.1915e-06 1.68303e-12 1.53428e-12 8.37889e-19 0 0 0 0 0 0 0 0 0 0 0 0 0 0 0 0 0 0 11 0.001 
4180 4 0.00460007 -0.0387998 -0.0391166 0 0 0 0.508338 -1.55611 1.65228 0 -5.63783e-05 0 0 0 0 0 0 0 0 0 0 0 0 0 0 0 0 0 166 0.0014 
503 1 0.002435 -0.0494583 -0.0355021 0 0 0 -7.23718e-07 -2.33122e-12 -1.44343e-12 3.44945e-21 0 0 0 0 0 0 0 0 0 0 0 0 0 0 0 0 0 0 0 0.001 
474 2 0.0161246 -0.0533325 -0.0292451 0 0 0 -3.20988e-07 -3.08528e-12 -1.91033e-12 -3.94132e-18 0 0 0 0 0 0 0 0 0 0 0 0 0 0 0 0 0 0 233 0.00113333 
1812 2 0.0005 -0.042236 -0.028201 0 0 0 2.9386e-14 -6.79581e-20 -6.21202e-195 8.88178e-16 0 3.1099e-195 0 0 0 0 0 0 0 0 0 0 0 0 0 0 0 0 20 0.00113333 
7869 1 0.0163179 -0.0492018 -0.0206341 0 0 0 -0.574779 0.494512 6.09928 0 -2.0546e-05 0 0 0 0 0 0 0 0 0 0 0 0 0 0 0 0 0 0 0.001 
5298 3 0.00400647 -0.0557364 -0.0138586 0 0 0 2.70145 -2.29174 9.34593 0 -4.17556e-05 0 0 0 0 0 0 0 0 0 0 0 0 0 0 0 0 0 144 0.00126667 
5044 2 0.0171564 -0.0577481 -0.0190767 0 0 0 1.87201e-07 -4.23348e-12 -1.64006e-12 -1.43214e-19 0 0 0 0 0 0 0 0 0 0 0 0 0 0 0 0 0 0 15 0.00113333 
2304 6 0.00387953 -0.0567387 -0.00330932 0 0 0 0.720682 -1.55721 8.75423 0 -9.51205e-05 0 0 0 0 0 0 0 0 0 0 0 0 0 0 0 0 0 284 0.00166667 
7964 3 0.0034273 -0.0434696 -0.0387768 0 0 0 10.1171 -25.4761 42.5162 0 -4.17556e-05 0 0 0 0 0 0 0 0 0 0 0 0 0 0 0 0 0 0 0.00126667 
5930 5 0.00308308 -0.057896 0.00762161 0 0 0 -1.65654 1.68247 12.9502 0.0193965 0.49379 -0.162469 0 0 0 0 0 0 0 0 0 0 0 0 0 0 0 0 22 0.00153333 
2073 1 0.0180353 -0.0596779 0.0113091 0 0 0 -4.18249e-07 1.89219e-12 -3.53712e-13 -1.29409e-18 0 0 0 0 0 0 0 0 0 0 0 0 0 0 0 0 0 0 1 0.001 
3780 2 0.0159983 -0.0576115 0.0194292 0 0 0 -5.35233e-07 -1.91126e-12 7.40424e-13 -4.30506e-19 0 0 0 0 0 0 0 0 0 0 0 0 0 0 0 0 0 0 2 0.00113333 
4283 3 0.00817246 -0.0506612 0.0249919 0 0 0 -2.2892 5.01284 11.8094 0 -4.17556e-05 0 0 0 0 0 0 0 0 0 0 0 0 0 0 0 0 0 157 0.00126667 
7897 4 0.00901307 -0.0498308 0.0301854 0 0 0 0.230046 1.2471 4.80927 0 -5.63783e-05 0 0 0 0 0 0 0 0 0 0 0 0 0 0 0 0 0 0 0.0014 
1895 1 0.018469 -0.0501367 0.0344065 0 0 0 -6.48196e-07 -3.40139e-13 2.10606e-13 -2.56681e-18 0 0 0 0 0 0 0 0 0 0 0 0 0 0 0 0 0 0 49 0.001 
3150 7 0.0156878 -0.0404616 0.0407506 0 0 0 2.08779 4.10099 3.67648 0 -0.000119824 0 0 0 0 0 0 0 0 0 0 0 0 0 0 0 0 0 323 0.0018 
438 1 0.00275292 -0.0435985 0.0423338 0 0 0 -4.81076e-07 -1.35205e-13 1.23257e-13 -5.10262e-18 0 0 0 0 0 0 0 0 0 0 0 0 0 0 0 0 0 0 18 0.001 
7925 3 0.00795543 -0.0570603 0.012743 0 0 0 0.307524 6.70624 27.9433 0 -4.17556e-05 0 0 0 0 0 0 0 0 0 0 0 0 0 0 0 0 0 0 0.00126667 
681 1 0.00586927 -0.0102939 -0.0600461 0 0 0 -2.53122e-08 -2.93711e-13 -3.16965e-12 -4.02021e-20 0 0 0 0 0 0 0 0 0 0 0 0 0 0 0 0 0 0 83 0.001 
1859 1 0.00625439 -0.0204781 -0.057324 0 0 0 6.15476e-06 -8.26831e-14 -2.90601e-13 3.40685e-19 0 0 0 0 0 0 0 0 0 0 0 0 0 0 0 0 0 0 3 0.001 
3866 1 0.00357045 -0.0170709 -0.0582934 0 0 0 5.55936e-06 1.90777e-12 6.70512e-12 -4.1973e-19 0 0 0 0 0 0 0 0 0 0 0 0 0 0 0 0 0 0 5 0.001 
7298 2 0.0161319 -0.0197629 -0.0575275 0 0 0 1.92347e-06 -7.18853e-13 -2.52651e-12 1.5651e-17 0 0 0 0 0 0 0 0 0 0 0 0 0 0 0 0 0 0 0 0.00113333 
2284 2 0.0152343 -0.0164004 -0.0584842 0 0 0 2.91006e-06 9.22711e-13 3.243e-12 8.95151e-19 0 0 0 0 0 0 0 0 0 0 0 0 0 0 0 0 0 0 47 0.00113333 
5645 2 0.0172963 -0.013806 -0.0592224 0 0 0 -4.53381e-08 1.34604e-13 4.73086e-13 -2.3705e-19 0 0 0 0 0 0 0 0 0 0 0 0 0 0 0 0 0 0 0 0.00113333 
6162 1 0.00396852 -0.0117791 -0.0597991 0 0 0 8.1124e-08 1.56847e-12 5.51261e-12 1.57631e-19 0 0 0 0 0 0 0 0 0 0 0 0 0 0 0 0 0 0 0 0.001 
5496 2 0.0112096 -0.0107182 -0.0599671 0 0 0 -0.835895 2.9816e-13 -2.8602e-12 2.32535e-15 1.85268e-15 1.66533e-16 0 0 0 0 0 0 0 0 0 0 0 0 0 0 0 0 72 0.00113333 
2127 2 0.00349976 -0.00513385 -0.0582261 0 0 0 -0.548602 -4.2078 0.0636274 0 -2.99089e-05 0 0 0 0 0 0 0 0 0 0 0 0 0 0 0 0 0 121 0.00113333 
32 1 0.00935026 -0.0275049 -0.0541575 0 0 0 -1.0183e-05 -1.83381e-12 -3.68278e-12 -4.10844e-17 0 0 0 0 0 0 0 0 0 0 0 0 0 0 0 0 0 0 4 0.001 
1699 1 0.00983524 -0.0237041 -0.0560501 0 0 0 -2.41979e-06 1.64333e-12 3.30026e-12 -1.28826e-19 0 0 0 0 0 0 0 0 0 0 0 0 0 0 0 0 0 0 13 0.001 
5368 8 0.00729178 -0.00820329 -0.0563064 0 0 0 -0.045788 -8.38271 0.513011 0 -0.000148473 0 0 0 0 0 0 0 0 0 0 0 0 0 0 0 0 0 229 0.00193333 
3427 1 0.00171428 -0.0319315 -0.0519533 0 0 0 -1.79056e-06 3.1424e-12 6.31079e-12 -5.10614e-18 0 0 0 0 0 0 0 0 0 0 0 0 0 0 0 0 0 0 53 0.001 
7132 2 0.00307944 -0.032413 -0.0480552 0 0 0 1.5453 -8.90959 5.96751 0 -2.99089e-05 0 0 0 0 0 0 0 0 0 0 0 0 0 0 0 0 0 40 0.00113333 
3359 2 0.0160872 -0.0351815 -0.0495455 0 0 0 1.59777e-06 -2.69518e-12 -3.56899e-12 3.11754e-17 0 0 0 0 0 0 0 0 0 0 0 0 0 0 0 0 0 0 30 0.00113333 
4941 13 0.011098 -0.0193957 -0.0498239 0 0 0 0.249493 -10.5274 -6.15468 0 -0.000361117 0 0 0 0 0 0 0 0 0 0 0 0 0 0 0 0 0 443 0.0026 
7858 2 0.00662012 -0.000723198 -0.0532882 0 0 0 0.413674 -1.8476 -0.887775 0 -2.99089e-05 0 0 0 0 0 0 0 0 0 0 0 0 0 0 0 0 0 0 0.00113333 
2849 2 0.0088202 -0.00264832 -0.0457401 0 0 0 0.187336 -1.47495 -0.275529 0 -2.99089e-05 0 0 0 0 0 0 0 0 0 0 0 0 0 0 0 0 0 165 0.00113333 
4398 1 0.00585304 -0.0329486 0.0512317 0 0 0 -1.98523e-06 1.68441e-12 -2.23051e-12 1.02514e-17 0 0 0 0 0 0 0 0 0 0 0 0 0 0 0 0 0 0 80 0.001 
45 3 0.00696377 -0.0155055 0.055452 0 0 0 0.283244 24.1452 6.92314 0 -4.17556e-05 0 0 0 0 0 0 0 0 0 0 0 0 0 0 0 0 0 164 0.00126667 
6194 2 0.0108338 -0.0177562 0.0554491 0 0 0 2.18473 5.14311 -2.55843 0 -2.99089e-05 0 0 0 0 0 0 0 0 0 0 0 0 0 0 0 0 0 64 0.00113333 
6907 1 0.00429367 -0.0203076 0.0544753 0 0 0 -1.83339 3.80194 2.02135 0 -2.0546e-05 0 0 0 0 0 0 0 0 0 0 0 0 0 0 0 0 0 44 0.001 
6011 1 0.0162364 -0.024163 0.0558215 0 0 0 1.02278e-08 -6.26424e-13 1.25803e-12 -2.44171e-21 0 0 0 0 0 0 0 0 0 0 0 0 0 0 0 0 0 0 34 0.001 
6019 6 0.0105589 -0.0149326 0.0561308 0 0 0 2.1828 10.0847 2.06167 0 -9.51205e-05 0 0 0 0 0 0 0 0 0 0 0 0 0 0 0 0 0 107 0.00166667 
1353 1 0.00501535 -0.0124774 0.0596003 0 0 0 -2.57098e-06 3.30325e-08 3.68323e-08 -1.10149e-12 -1.148e-13 2.13297e-13 0 0 0 0 0 0 0 0 0 0 0 0 0 0 0 0 12 0.001 
6002 1 0.00700994 -0.0123879 0.0596259 0 0 0 2.57099e-06 -3.30313e-08 -3.68305e-08 1.10136e-12 1.06558e-13 -1.8439e-13 0 0 0 0 0 0 0 0 0 0 0 0 0 0 0 0 0 0.001 
4317 2 0.0154475 -0.0133988 0.0593382 0 0 0 -9.75413e-07 4.1682e-13 -1.46496e-12 7.56401e-18 -2.77556e-17 1.11022e-16 0 0 0 0 0 0 0 0 0 0 0 0 0 0 0 0 76 0.00113333 
601 1 0.0132304 -0.00480366 0.0605549 0 0 0 -8.94195e-07 -2.12812e-13 2.2966e-12 -2.20426e-20 0 0 0 0 0 0 0 0 0 0 0 0 0 0 0 0 0 0 14 0.001 
984 2 0.0113113 -0.0017003 0.0608424 0 0 0 1.82403e-06 2.00469e-13 -2.16341e-12 7.74395e-18 -6.93889e-18 1.11022e-16 0 0 0 0 0 0 0 0 0 0 0 0 0 0 0 0 16 0.00113333 
7871 2 0.00825712 -0.0362026 0.0460953 0 0 0 0.927166 9.93441 6.70681 0 -2.99089e-05 0 0 0 0 0 0 0 0 0 0 0 0 0 0 0 0 0 0 0.00113333 
936 1 0.0157509 -0.0136543 0.0570656 0 0 0 -24.7171 42.1875 9.62322 0 -2.0546e-05 0 0 0 0 0 0 0 0 0 0 0 0 0 0 0 0 0 91 0.001 
904 2 0.0150631 0.00771901 -0.0602847 0 0 0 5.75632e-06 1.5147e-13 -1.63463e-12 1.56192e-17 -6.93889e-18 1.11022e-16 0 0 0 0 0 0 0 0 0 0 0 0 0 0 0 0 25 0.00113333 
241 1 0.0029577 0.0106721 -0.0600111 0 0 0 2.61029e-09 1.58212e-07 -8.01854e-07 -9.48586e-12 -5.52443e-10 2.80872e-09 0 0 0 0 0 0 0 0 0 0 0 0 0 0 0 0 25 0.001 
471 1 0.00119977 0.0115992 -0.0598503 0 0 0 -7.31459e-09 -1.36858e-07 8.05951e-07 2.5532e-11 4.80885e-10 -2.82248e-09 0 0 0 0 0 0 0 0 0 0 0 0 0 0 0 0 0 0.001 
6477 2 0.00734862 0.0116371 -0.0598052 0 0 0 0.0543372 -8.72713e-13 1.77738e-12 -1.34641e-17 0 0 0 0 0 0 0 0 0 0 0 0 0 0 0 0 0 0 7 0.00113333 
824 1 0.00442726 0.0134159 -0.0593334 0 0 0 -2.76834e-07 5.7847e-13 -2.0331e-12 6.31476e-19 0 0 0 0 0 0 0 0 0 0 0 0 0 0 0 0 0 0 3 0.001 
3591 1 0.00229462 0.0142492 -0.0590963 0 0 0 1.34223e-07 1.34202e-13 -4.71673e-13 3.25482e-19 0 0 0 0 0 0 0 0 0 0 0 0 0 0 0 0 0 0 0 0.001 
1290 1 0.00429498 0.0160086 -0.0585957 0 0 0 -9.17124e-07 -1.77728e-13 6.24644e-13 -4.82056e-20 0 0 0 0 0 0 0 0 0 0 0 0 0 0 0 0 0 0 17 0.001 
3596 3 0.0158708 0.0137512 -0.059238 0 0 0 -6.74216e-06 6.9982e-13 -2.45961e-12 -4.43572e-17 0 0 0 0 0 0 0 0 0 0 0 0 0 0 0 0 0 0 24 0.00126667 
5851 1 0.00442222 0.0195928 -0.0575759 0 0 0 -6.5892e-07 8.36463e-13 -2.93986e-12 1.28109e-18 0 0 0 0 0 0 0 0 0 0 0 0 0 0 0 0 0 0 0 0.001 
5654 2 0.0164271 0.0191511 -0.0577016 0 0 0 -8.04373e-07 9.3874e-13 -3.29932e-12 3.90021e-18 2.77556e-17 -1.11022e-16 0 0 0 0 0 0 0 0 0 0 0 0 0 0 0 0 0 0.00113333 
1030 2 0.00269357 0.0224533 -0.0566875 0 0 0 -4.0349e-08 -1.2006e-15 3.42467e-15 -1.44132e-11 0 0 0 0 0 0 0 0 0 0 0 0 0 0 0 0 0 0 1 0.00113333 
2820 2 0.0120477 0.0358088 -0.00768286 0 0 0 -11.7894 14.5711 -3.77914 0 -2.99089e-05 0 0 0 0 0 0 0 0 0 0 0 0 0 0 0 0 0 135 0.00113333 
6141 2 0.00244348 0.0199098 -0.0545568 0 0 0 0.283799 -1.20079 -0.0652658 0 -2.99089e-05 0 0 0 0 0 0 0 0 0 0 0 0 0 0 0 0 0 79 0.00113333 
5107 1 0.0158742 0.024793 -0.0555079 0 0 0 2.75754e-06 -5.93203e-13 1.19131e-12 -1.01279e-17 0 0 0 0 0 0 0 0 0 0 0 0 0 0 0 0 0 0 60 0.001 
7188 1 0.00863496 0.0283418 -0.0537408 0 0 0 1.87052e-06 1.76234e-12 -3.53925e-12 1.14891e-19 0 0 0 0 0 0 0 0 0 0 0 0 0 0 0 0 0 0 0 0.001 
6854 2 0.0155648 0.0355724 -0.00666971 0 0 0 0.68396 -0.755943 0.991511 0 -2.99089e-05 0 0 0 0 0 0 0 0 0 0 0 0 0 0 0 0 0 62 0.00113333 
1767 2 0.00667875 0.00635642 -0.052111 0 0 0 -8.58078 -12.2911 0.486349 0 -2.99089e-05 0 0 0 0 0 0 0 0 0 0 0 0 0 0 0 0 0 202 0.00113333 
4589 3 0.00368141 0.0182648 -0.0519508 0 0 0 0.349927 -2.52332 -0.287066 0 -4.17556e-05 0 0 0 0 0 0 0 0 0 0 0 0 0 0 0 0 0 110 0.00126667 
6093 3 0.0028717 0.0247639 -0.0508819 0 0 0 0.201665 -1.03734 -1.40834 0 -4.17556e-05 0 0 0 0 0 0 0 0 0 0 0 0 0 0 0 0 0 63 0.00126667 
7285 6 0.00670131 0.0266465 -0.0513136 0 0 0 0.861762 -1.1645 -1.61977 0 -9.51205e-05 0 0 0 0 0 0 0 0 0 0 0 0 0 0 0 0 0 1 0.00166667 
2798 1 0.0052623 0.0296938 -0.0530676 0 0 0 1.1375e-06 1.86255e-12 -3.74051e-12 -6.75531e-20 0 0 0 0 0 0 0 0 0 0 0 0 0 0 0 0 0 0 51 0.001 
1989 2 0.00241343 0.0324169 -0.0516584 0 0 0 -7.18017e-06 7.48278e-07 3.19249e-07 -1.96433e-07 2.07309e-08 1.12376e-08 0 0 0 0 0 0 0 0 0 0 0 0 0 0 0 0 0 0.00113333 
2065 2 0.00461617 0.0319745 -0.05195 0 0 0 -1.98862e-05 -1.10196e-06 -4.20322e-07 -6.87999e-07 -3.09223e-08 -1.53307e-08 0 0 0 0 0 0 0 0 0 0 0 0 0 0 0 0 23 0.00113333 
5971 1 0.00642917 0.0329786 -0.0512091 0 0 0 -1.76882e-06 -4.80127e-13 6.35789e-13 -1.45291e-19 0 0 0 0 0 0 0 0 0 0 0 0 0 0 0 0 0 0 0 0.001 
5822 1 0.0120985 0.033546 -0.0507806 0 0 0 5.50363e-07 -5.16458e-14 6.83906e-14 2.57078e-18 0 0 0 0 0 0 0 0 0 0 0 0 0 0 0 0 0 0 44 0.001 
5186 4 0.0176977 0.032178 -0.0518136 0 0 0 0.00343488 1.29831e-12 -1.73728e-12 -1.18187e-14 0 -4.44089e-16 0 0 0 0 0 0 0 0 0 0 0 0 0 0 0 0 125 0.0014 
5447 1 0.0163409 0.0273277 -0.0477805 0 0 0 2.59538 -1.98597 -0.678332 0 -2.0546e-05 0 0 0 0 0 0 0 0 0 0 0 0 0 0 0 0 0 62 0.001 
1155 1 0.0106317 0.030759 -0.0484607 0 0 0 0.347585 -0.784019 -0.461163 0 -2.0546e-05 0 0 0 0 0 0 0 0 0 0 0 0 0 0 0 0 0 263 0.001 
7565 1 0.00897914 0.0355699 -0.0492522 0 0 0 -1.75906e-06 -1.34062e-12 1.77527e-12 -6.20688e-20 0 0 0 0 0 0 0 0 0 0 0 0 0 0 0 0 0 0 0 0.001 
6021 5 0.0037756 0.025194 -0.045397 0 0 0 -0.205124 -2.6891 -1.84042 0 -7.40691e-05 0 0 0 0 0 0 0 0 0 0 0 0 0 0 0 0 0 94 0.00153333 
7153 5 0.00495136 0.0338331 -0.0468129 0 0 0 0.464032 -2.1452 -1.73619 0 -7.40691e-05 0 0 0 0 0 0 0 0 0 0 0 0 0 0 0 0 0 39 0.00153333 
2904 4 0.00770872 0.0305167 -0.0427466 0 0 0 0.252042 -1.79578 -2.07076 0 -5.63783e-05 0 0 0 0 0 0 0 0 0 0 0 0 0 0 0 0 0 116 0.0014 
2213 3 0.00864465 0.0273038 -0.0392117 0 0 0 -0.0275264 -2.31306 -0.442779 0 -4.17556e-05 0 0 0 0 0 0 0 0 0 0 0 0 0 0 0 0 0 116 0.00126667 
5729 6 0.0168725 0.00469216 -0.0342674 0 0 0 0.872585 -7.7158 -4.01977 0 -9.51205e-05 0 0 0 0 0 0 0 0 0 0 0 0 0 0 0 0 0 159 0.00166667 
3775 7 0.00327348 0.0271498 -0.0327569 0 0 0 -0.162975 -1.7236 -0.063513 0 -0.000119824 0 0 0 0 0 0 0 0 0 0 0 0 0 0 0 0 0 291 0.0018 
3392 3 0.00925311 0.0300921 -0.0360819 0 0 0 1.10579 -2.72159 -9.4348 0 -4.17556e-05 0 0 0 0 0 0 0 0 0 0 0 0 0 0 0 0 0 167 0.00126667 
6551 1 0.00324167 0.0339697 -0.0319034 0 0 0 0.425816 -1.82176 -0.00634382 0 -2.0546e-05 0 0 0 0 0 0 0 0 0 0 0 0 0 0 0 0 0 29 0.001 
6778 2 0.0111782 0.0279534 -0.0239557 0 0 0 0.792435 -6.25906 1.19433 0 -2.99089e-05 0 0 0 0 0 0 0 0 0 0 0 0 0 0 0 0 0 64 0.00113333 
7021 1 0.0182919 0.0331359 -0.0167369 0 0 0 0.730633 -0.941172 -1.28243 0 -2.0546e-05 0 0 0 0 0 0 0 0 0 0 0 0 0 0 0 0 0 16 0.001 
6680 2 0.0135059 0.030889 -0.0136178 0 0 0 0.594327 -0.338036 -9.81314 0 -2.99089e-05 0 0 0 0 0 0 0 0 0 0 0 0 0 0 0 0 0 75 0.00113333 
4510 1 0.0005 0.0358526 0.0149092 0 0 0 -9.15992e-14 -1.01067e-19 -3.99866e-302 4.44089e-16 0 1.80928e-307 0 0 0 0 0 0 0 0 0 0 0 0 0 0 0 0 0 0.001 
7793 3 0.0118171 0.0330388 0.0484489 0 0 0 -16.2604 38.1394 -24.0433 0.101233 -0.452835 -0.505318 0 0 0 0 0 0 0 0 0 0 0 0 0 0 0 0 2 0.00126667 
4324 1 0.0157024 0.0372381 0.0479925 0 0 0 1.55844e-06 -6.41342e-13 -8.49273e-13 -1.02439e-17 0 0 0 0 0 0 0 0 0 0 0 0 0 0 0 0 0 0 0 0.001 
1439 1 0.00801315 0.00500448 0.0605363 0 0 0 -3.17065e-07 1.18079e-13 1.27428e-12 -3.81371e-21 0 0 0 0 0 0 0 0 0 0 0 0 0 0 0 0 0 0 0 0.001 
2391 1 0.00201583 0.0238896 0.0559577 0 0 0 -6.5658e-07 -1.31508e-12 -2.64104e-12 1.91636e-19 0 0 0 0 0 0 0 0 0 0 0 0 0 0 0 0 0 0 0 0.001 
1466 1 0.0115751 0.0256383 0.0550869 0 0 0 -4.18161e-06 1.87649e-12 3.7685e-12 -1.53988e-18 0 0 0 0 0 0 0 0 0 0 0 0 0 0 0 0 0 0 22 0.001 
2328 3 0.0161718 0.0118445 0.0569211 0 0 0 -1.25046 17.0181 -2.79112 0 -4.17556e-05 0 0 0 0 0 0 0 0 0 0 0 0 0 0 0 0 0 135 0.00126667 
2091 1 0.00122023 0.0133731 0.0593455 0 0 0 -5.99471e-07 -3.23799e-14 -1.13801e-13 -1.2879e-18 0 0 0 0 0 0 0 0 0 0 0 0 0 0 0 0 0 0 7 0.001 
4824 1 0.00630352 0.0172426 0.0582446 0 0 0 8.16742e-06 2.02435e-13 7.11482e-13 5.0188e-21 0 0 0 0 0 0 0 0 0 0 0 0 0 0 0 0 0 0 22 0.001 
1377 1 0.0101609 0.0022193 0.0607944 0 0 0 -7.6806e-07 3.27054e-14 3.52663e-13 2.28854e-21 -9.21572e-19 0 0 0 0 0 0 0 0 0 0 0 0 0 0 0 0 0 33 0.001 
796 1 0.00478366 0.0380098 -0.0474097 0 0 0 -6.15159e-07 -9.10794e-13 1.20609e-12 -4.16891e-22 0 0 0 0 0 0 0 0 0 0 0 0 0 0 0 0 0 0 0 0.001 
2262 1 0.00454886 0.0412309 -0.044931 0 0 0 -9.24925e-08 -5.53737e-12 5.04798e-12 -1.29867e-18 0 0 0 0 0 0 0 0 0 0 0 0 0 0 0 0 0 0 4 0.001 
818 3 0.0146776 0.0487999 -0.0366953 0 0 0 -3.99801e-05 2.80449e-14 -2.0186e-14 2.69391e-06 0 0 0 0 0 0 0 0 0 0 0 0 0 0 0 0 0 0 10 0.00126667 
6845 2 0.0170947 0.0505941 -0.0355052 0 0 0 -1.58691e-13 9.04567e-14 -6.11422e-13 -6.63358e-15 -4.71845e-16 -8.88178e-16 0 1 0 0 0 0 0 0 0 0 0 0 0 0 0 0 58 0.00113333 
2063 1 0.00679581 0.0529061 -0.0355 0 0 0 5.70698e-175 4.50503e-20 6.08169e-12 3.96991e-176 1.69407e-21 -4.44089e-16 0 0 0 0 0 0 0 0 0 0 0 0 0 0 0 0 3 0.001 
119 2 0.00986272 0.051158 -0.0355 0 0 0 -1.03045e-103 -1.86971e-19 2.75345e-12 7.31715e-104 0 0 0 0 0 0 0 0 0 0 0 0 0 0 0 0 0 0 3 0.00113333 
408 3 0.010369 0.0538687 -0.0355 0 0 0 1.62319e-144 -1.87185e-19 -4.18976e-12 -9.54961e-145 0 0 0 0 0 0 0 0 0 0 0 0 0 0 0 0 0 0 4 0.00126667 
93 2 0.0124461 0.0512603 -0.0355 0 0 0 -1.88196e-302 1.53031e-19 -4.60299e-12 -2.69929e-307 -1.69407e-21 8.88178e-16 0 0 0 0 0 0 0 0 0 0 0 0 0 0 0 0 2 0.00113333 
5235 2 0.0147158 0.0513749 -0.0355 0 0 0 1.38122e-302 -1.8713e-19 -9.12446e-13 -2.71146e-307 -1.69407e-21 0 0 0 0 0 0 0 0 0 0 0 0 0 0 0 0 0 0 0.00113333 
160 4 0.0178702 0.0527038 -0.0354851 0 0 0 5.69759e-13 6.26999e-13 -6.11924e-13 5.14033e-14 5.22672e-14 1.77636e-15 0 1 0 1 0 0 0 0 0 0 0 0 0 0 0 0 254 0.0014 
1152 4 0.0158468 0.0538366 -0.0355245 0 0 0 -5.96059e-13 -2.44585e-13 -6.16161e-13 -5.41789e-14 -2.11497e-14 0 0 0 0 0 0 0 0 0 0 0 0 0 0 0 0 0 1 0.0014 
502 1 0.00637754 0.0549921 -0.0355 0 0 0 -3.04953e-302 -8.93348e-20 -4.06073e-12 1.80739e-307 0 0 0 0 0 0 0 0 0 0 0 0 0 0 0 0 0 0 1 0.001 
1154 1 0.00822822 0.0563634 -0.0355 0 0 0 1.73212e-73 -1.23287e-19 2.03448e-12 -3.70925e-74 0 0 0 0 0 0 0 0 0 0 0 0 0 0 0 0 0 0 2 0.001 
4287 3 0.0102853 0.0579406 -0.0355 0 0 0 -2.23342e-60 -2.00336e-19 -6.70985e-12 4.03564e-61 0 0 0 0 0 0 0 0 0 0 0 0 0 0 0 0 0 0 1 0.00126667 
6095 4 0.0171611 0.0555732 -0.0354863 0 0 0 3.31142e-13 -2.83717e-13 -6.14459e-13 2.85327e-14 -1.68754e-14 1.77636e-15 0 0 0 0 0 0 0 0 0 0 0 0 0 0 0 0 0 0.0014 
1970 1 0.00841783 0.0605555 -0.0355 0 0 0 -1.30499e-17 -3.23442e-17 -1.01875e-12 -8.91923e-19 -8.93281e-18 4.44089e-16 0 0 0 0 0 0 0 0 0 0 0 0 0 0 0 0 14 0.001 
3653 4 0.014786 0.0603176 -0.0355367 0 0 0 3.70838e-15 1.0116e-14 -1.97339e-12 0 2.22045e-16 0 0 0 0 1 0 0 0 0 0 0 0 0 0 0 0 0 158 0.0014 
4925 5 0.0159011 0.0585747 -0.0354672 0 0 0 -1.05203e-15 -4.22309e-15 -1.99222e-12 0 -4.44089e-16 0 0 0 0 1 0 0 0 0 0 0 0 0 0 0 0 0 147 0.00153333 
87 3 0.00849451 0.0630017 -0.0355 0 0 0 5.41942e-16 -8.27526e-16 4.18943e-12 1.59765e-16 7.61415e-17 0 0 0 0 0 0 0 0 0 0 0 0 0 0 0 0 0 2 0.00126667 
5573 1 0.0109263 0.0621576 -0.0355 0 0 0 -3.92997e-108 1.57376e-19 2.02927e-12 1.67883e-108 0 0 0 0 0 0 0 0 0 0 0 0 0 0 0 0 0 0 62 0.001 
2669 1 0.0129995 0.0645325 -0.0355 0 0 0 4.05944e-28 -1.91139e-19 -6.0817e-12 -5.19398e-29 0 4.44089e-16 0 0 0 0 0 0 0 0 0 0 0 0 0 0 0 0 6 0.001 
534 1 0.0165119 0.0621343 -0.035491 0 0 0 -0.0622118 0.0664775 0.00399611 -0.0268181 0.0295071 0.00361503 1 0 0 0 0 0 0 0 0 0 0 0 0 0 0 0 337 0.001 
977 3 0.0156829 0.0636897 -0.0355065 0 0 0 -0.00212906 0.000945752 -0.00259471 -0.00422136 0.00186569 -0.00486208 1 0 0 0 0 0 0 0 0 0 0 0 0 0 0 0 340 0.00126667 
238 2 0.00640255 0.0670532 -0.0355 0 0 0 5.02434e-211 1.9589e-19 4.17392e-15 1.53066e-211 0 0 0 0 0 0 0 0 0 0 0 0 0 0 0 0 0 0 4 0.00113333 
1298 2 0.00457784 0.0652686 -0.0355 0 0 0 9.6327e-234 -1.36022e-19 4.60296e-12 9.8527e-235 -1.69407e-21 -8.88178e-16 0 0 0 0 0 0 0 0 0 0 0 0 0 0 0 0 3 0.00113333 
4627 2 0.00658875 0.0651746 -0.0335835 0 0 0 -0.365703 -0.307922 -0.00648158 0 -2.99089e-05 0 0 0 0 0 0 0 0 0 0 0 0 0 0 0 0 0 137 0.00113333 
1739 4 0.00996787 0.0659209 -0.0355 0 0 0 3.59691e-19 -2.66321e-19 -4.62321e-12 1.46416e-19 -9.82558e-20 0 0 0 0 0 0 0 0 0 0 0 0 0 0 0 0 0 33 0.0014 
5109 1 0.00565015 0.0694729 -0.0355 0 0 0 1.11327e-38 -8.90214e-20 -2.02914e-12 -8.28698e-40 0 0 0 0 0 0 0 0 0 0 0 0 0 0 0 0 0 0 11 0.001 
4655 3 0.00712168 0.0692191 -0.0336716 0 0 0 0.0111493 -2.1421 -0.588132 0.00521366 -0.0144686 -0.00950574 0 0 1 0 0 0 0 0 0 0 0 0 0 0 0 0 143 0.00126667 
752 5 0.0153285 0.0682172 -0.0355 0 0 0 8.65857e-26 -2.30446e-19 2.14318e-12 1.57808e-25 0 1.77636e-15 0 0 0 0 0 0 0 0 0 0 0 0 0 0 0 0 4 0.00153333 
5660 2 0.00427488 0.0724176 -0.0355 0 0 0 -7.70408e-13 -9.16402e-13 2.76595e-12 5.70908e-13 7.03348e-13 -1.77636e-15 0 0 0 0 0 0 0 0 0 0 0 0 0 0 0 0 3 0.00113333 
7443 2 0.00259372 0.0731171 -0.0338308 0 0 0 0.0717607 -0.0688627 0.069681 0 -2.99089e-05 0 0 0 0 0 0 0 0 0 0 0 0 0 0 0 0 0 1 0.00113333 
1876 3 0.00883822 0.0742301 -0.0330582 0 0 0 1.02922 -0.600951 0.82113 0 -4.17556e-05 0 0 0 0 0 0 0 0 0 0 0 0 0 0 0 0 0 193 0.00126667 
6911 3 0.0130325 0.0715036 -0.033323 0 0 0 0.158349 -0.870897 0.208157 0 -4.17556e-05 0 0 0 0 0 0 0 0 0 0 0 0 0 0 0 0 0 49 0.00126667 
15 1 0.0178452 0.074808 -0.0354993 0 0 0 3.7764e-16 -8.56616e-16 5.57475e-12 -2.77556e-17 -5.55112e-17 0 0 0 0 0 0 0 0 0 0 0 0 0 0 0 0 0 4 0.001 
13 1 0.0174592 0.0731488 -0.0355007 0 0 0 -2.81164e-16 1.22813e-15 5.57462e-12 2.77556e-17 5.55112e-17 0 0 0 0 0 0 0 0 0 0 0 0 0 0 0 0 0 7 0.001 
7910 1 0.00268084 0.0429415 -0.0310847 0 0 0 0.185981 -0.789229 0.282541 0 -2.0546e-05 0 0 0 0 0 0 0 0 0 0 0 0 0 0 0 0 0 1 0.001 
7890 2 0.00369416 0.0505087 -0.0331974 0 0 0 -0.332616 0.196834 -1.78188 0 -2.99089e-05 0 0 0 0 0 0 0 0 0 0 0 0 0 0 0 0 0 0 0.00113333 
453 3 0.00386209 0.0471624 -0.0311814 0 0 0 -1.64304 -2.75897 -1.06192 0 -4.17556e-05 0 0 0 0 0 0 0 0 0 0 0 0 0 0 0 0 0 208 0.00126667 
6338 1 0.00339671 0.0507358 -0.0309505 0 0 0 -0.74219 -2.3947 -0.207468 0 -2.0546e-05 0 0 0 0 0 0 0 0 0 0 0 0 0 0 0 0 0 32 0.001 
6745 2 0.0141197 0.0546012 -0.0323705 0 0 0 -0.412265 -3.02644 0.126927 0 -2.99089e-05 0 0 0 0 0 0 0 0 0 0 0 0 0 0 0 0 0 35 0.00113333 
6148 6 0.00266187 0.0587461 -0.0310482 0 0 0 0.142668 0.00500394 0.779885 -0.00400763 0.00183076 -0.000553397 0 0 0 0 0 0 0 0 0 0 0 0 0 0 0 0 120 0.00166667 
7283 4 0.00765464 0.0609166 -0.0319005 0 0 0 -1.0811 -0.493886 1.43585 0 -5.63783e-05 0 0 0 0 0 0 0 0 0 0 0 0 0 0 0 0 0 41 0.0014 
4905 4 0.002642 0.0624439 -0.0302847 0 0 0 0.787026 0.529504 1.20585 0 -5.63783e-05 0 0 0 0 0 0 0 0 0 0 0 0 0 0 0 0 0 142 0.0014 
3963 1 0.0103034 0.0632932 -0.0322741 0 0 0 -0.0928187 -1.18239 0.239554 0 -2.0546e-05 0 0 0 0 0 0 0 0 0 0 0 0 0 0 0 0 0 72 0.001 
5373 1 0.00870904 0.0632656 -0.0306787 0 0 0 -0.156627 -1.05134 1.54921 0 -2.0546e-05 0 0 0 0 0 0 0 0 0 0 0 0 0 0 0 0 0 73 0.001 
7026 1 0.0114579 0.0614803 -0.0328707 0 0 0 0.215876 -0.931272 -0.0750296 0 -2.0546e-05 0 0 0 0 0 0 0 0 0 0 0 0 0 0 0 0 0 15 0.001 
7846 3 0.0129547 0.0625989 -0.0315385 0 0 0 -1.46902 -2.01184 1.80687 0 -4.17556e-05 0 0 0 0 0 0 0 0 0 0 0 0 0 0 0 0 0 0 0.00126667 
7911 1 0.0160016 0.0647501 -0.031886 0 0 0 -2.69209 0.0972091 1.12232 0 -2.0546e-05 0 0 0 0 0 0 0 0 0 0 0 0 0 0 0 0 0 0 0.001 
7889 4 0.00403635 0.0659429 -0.0328058 0 0 0 -0.742671 -0.462776 0.150962 0 -5.63783e-05 0 0 0 0 0 0 0 0 0 0 0 0 0 0 0 0 0 0 0.0014 
57 2 0.00598515 0.0674009 -0.0316785 0 0 0 -0.289616 -1.00668 0.85704 0 -2.99089e-05 0 0 0 0 0 0 0 0 0 0 0 0 0 0 0 0 0 109 0.00113333 
5863 1 0.00923038 0.0656233 -0.0310151 0 0 0 0.911397 -0.359682 -0.0528229 0 -2.0546e-05 0 0 0 0 0 0 0 0 0 0 0 0 0 0 0 0 0 12 0.001 
5315 1 0.0126198 0.0668007 -0.0332178 0 0 0 -0.9431 -3.1962 -1.20551 0 -2.0546e-05 0 0 0 0 0 0 0 0 0 0 0 0 0 0 0 0 0 59 0.001 
2821 7 0.00316072 0.0689994 -0.0321882 0 0 0 -0.26759 -0.350818 0.419114 0 -0.000119824 0 0 0 0 0 0 0 0 0 0 0 0 0 0 0 0 0 333 0.0018 
4927 1 0.00794575 0.0690473 -0.0304529 0 0 0 0.441452 -0.672349 0.425759 0 -2.0546e-05 0 0 0 0 0 0 0 0 0 0 0 0 0 0 0 0 0 77 0.001 
7080 4 0.00661323 0.0707076 -0.0315682 0 0 0 0.551487 -1.37161 -0.167242 -0.00521366 0.0143705 0.00950574 0 0 1 0 0 0 0 0 0 0 0 0 0 0 0 0 55 0.0014 
6740 2 0.0105938 0.0682893 -0.0325916 0 0 0 -1.84299 -0.948593 0.0569887 0.0213778 -0.0257565 0.00479201 0 1 0 0 0 0 0 0 0 0 0 0 0 0 0 0 43 0.00113333 
4005 3 0.0159524 0.0638749 -0.0268978 0 0 0 -0.417353 -2.90413 1.11217 0.0240103 0.10794 -0.304639 0 0 1 0 0 0 0 0 0 0 0 0 0 0 0 0 134 0.00126667 
7937 1 0.0164897 0.0696172 -0.0310575 0 0 0 1.13227 -2.48155 -1.74491 0 -2.0546e-05 0 0 0 0 0 0 0 0 0 0 0 0 0 0 0 0 0 0 0.001 
2484 3 0.00229542 0.0720121 -0.0316675 0 0 0 0.0532204 -0.218351 0.0987216 0 -4.17556e-05 0 0 0 0 0 0 0 0 0 0 0 0 0 0 0 0 0 163 0.00126667 
3584 1 0.00234245 0.0742326 -0.0311615 0 0 0 0.298345 -0.29213 -0.15475 0 -2.0546e-05 0 0 0 0 0 0 0 0 0 0 0 0 0 0 0 0 0 109 0.001 
7766 5 0.0055979 0.0734943 -0.0329777 0 0 0 0.477259 -0.172447 0.458094 0 -7.40691e-05 0 0 0 0 0 0 0 0 0 0 0 0 0 0 0 0 0 1 0.00153333 
6704 6 0.00995353 0.070882 -0.0333822 0 0 0 -0.0532732 -1.47536 0.32809 -0.0102775 0.00202572 0.113501 0 1 0 0 0 0 0 0 0 0 0 0 0 0 0 0 63 0.00166667 
2023 1 0.0155418 0.0732191 -0.0331772 0 0 0 1.1293 -1.28323 -0.49598 0 -2.0546e-05 0 0 0 0 0 0 0 0 0 0 0 0 0 0 0 0 0 90 0.001 
6076 2 0.0154883 0.071617 -0.0307031 0 0 0 1.884 -0.559906 0.878916 0 -2.99089e-05 0 0 0 0 0 0 0 0 0 0 0 0 0 0 0 0 0 35 0.00113333 
6856 2 0.0139968 0.0741254 -0.0308883 0 0 0 1.3783 -0.955167 -1.18069 0 -2.99089e-05 0 0 0 0 0 0 0 0 0 0 0 0 0 0 0 0 0 44 0.00113333 
6830 4 0.0152852 0.0380709 -0.0292742 0 0 0 0.443697 -1.68285 0.638879 0 -5.63783e-05 0 0 0 0 0 0 0 0 0 0 0 0 0 0 0 0 0 44 0.0014 
7946 4 0.0117575 0.0461652 -0.0294582 0 0 0 1.26519 -1.83209 0.59871 0 -5.63783e-05 0 0 0 0 0 0 0 0 0 0 0 0 0 0 0 0 0 0 0.0014 
2308 2 0.0027339 0.0524075 -0.0287106 0 0 0 -0.442217 -2.26662 -1.49401 0 -2.99089e-05 0 0 0 0 0 0 0 0 0 0 0 0 0 0 0 0 0 188 0.00113333 
7954 4 0.0136387 0.0534644 -0.0267767 0 0 0 -2.63269 -1.0089 0.514864 0 -5.63783e-05 0 0 0 0 0 0 0 0 0 0 0 0 0 0 0 0 0 0 0.0014 
5798 2 0.00677599 0.052706 -0.0270938 0 0 0 -2.18473 -4.94717 -0.149335 0 -2.99089e-05 0 0 0 0 0 0 0 0 0 0 0 0 0 0 0 0 0 67 0.00113333 
7691 3 0.00504676 0.0605688 -0.0297071 0 0 0 0.314575 -0.717423 -2.00558 0 -4.17556e-05 0 0 0 0 0 0 0 0 0 0 0 0 0 0 0 0 0 0 0.00126667 
4393 2 0.00888337 0.0615463 -0.0258958 0 0 0 -1.374 -1.61605 2.52146 0 -2.99089e-05 0 0 0 0 0 0 0 0 0 0 0 0 0 0 0 0 0 144 0.00113333 
2765 2 0.00228674 0.0660146 -0.0296965 0 0 0 -0.400851 0.204677 -2.71742 0 -2.99089e-05 0 0 0 0 0 0 0 0 0 0 0 0 0 0 0 0 0 105 0.00113333 
5003 5 0.0100432 0.0674661 -0.0290152 0 0 0 -1.00397 -1.36786 0.399546 0 -7.40691e-05 0 0 0 0 0 0 0 0 0 0 0 0 0 0 0 0 0 161 0.00153333 
3355 3 0.0129445 0.0655575 -0.028591 0 0 0 -0.101973 -1.22383 1.3218 -0.0140371 -0.0145178 0.00180603 0 0 1 0 0 0 0 0 0 0 0 0 0 0 0 0 148 0.00126667 
551 4 0.00252984 0.070506 -0.0294012 0 0 0 0.131465 -0.452017 0.0656092 0 -5.63783e-05 0 0 0 0 0 0 0 0 0 0 0 0 0 0 0 0 0 174 0.0014 
2794 2 0.00574178 0.0689573 -0.0296945 0 0 0 -0.123285 -1.07214 0.265269 0 -2.99089e-05 0 0 0 0 0 0 0 0 0 0 0 0 0 0 0 0 0 177 0.00113333 
7817 4 0.00522601 0.0710598 -0.0283532 0 0 0 0.437754 -0.672436 -0.152499 0 -5.63783e-05 0 0 0 0 0 0 0 0 0 0 0 0 0 0 0 0 0 0 0.0014 
4041 2 0.00904111 0.0707702 -0.0285034 0 0 0 0.457471 -0.158478 0.309794 0 -2.99089e-05 0 0 0 0 0 0 0 0 0 0 0 0 0 0 0 0 0 112 0.00113333 
7949 8 0.013893 0.0685493 -0.0290683 0 0 0 -0.223852 -1.2633 0.502347 0.0140371 0.0143276 -0.00180603 0 0 1 0 0 0 0 0 0 0 0 0 0 0 0 0 1 0.00193333 
35 1 0.00268811 0.0738158 -0.0291864 0 0 0 0.367198 -0.0879502 -0.0306463 -0.00567702 0.00884399 -0.00896971 1 0 0 0 0 0 0 0 0 0 0 0 0 0 0 0 135 0.001 
7825 2 0.0022485 0.0726546 -0.0274615 0 0 0 -0.0128689 0.61593 -0.395806 0.00567702 -0.00889445 0.00896971 1 0 0 0 0 0 0 0 0 0 0 0 0 0 0 0 1 0.00113333 
7948 6 0.00709188 0.0733991 -0.0300397 0 0 0 0.451495 -1.69264 -0.503945 0 -9.51205e-05 0 0 0 0 0 0 0 0 0 0 0 0 0 0 0 0 0 0 0.00166667 
7317 2 0.00266279 0.0418263 -0.0259651 0 0 0 0.691034 -1.22093 0.227922 0 -2.99089e-05 0 0 0 0 0 0 0 0 0 0 0 0 0 0 0 0 0 20 0.00113333 
6922 1 0.00207535 0.0467282 -0.0251968 0 0 0 0.159129 -5.73448 -0.671807 0 -2.0546e-05 0 0 0 0 0 0 0 0 0 0 0 0 0 0 0 0 0 35 0.001 
2228 4 0.0139486 0.0482359 -0.0253958 0 0 0 -1.64064 -1.17961 0.594395 0 -5.63783e-05 0 0 0 0 0 0 0 0 0 0 0 0 0 0 0 0 0 201 0.0014 
6294 3 0.00249091 0.0568023 -0.027685 0 0 0 0.462861 -0.878633 -2.5613 0 -4.17556e-05 0 0 0 0 0 0 0 0 0 0 0 0 0 0 0 0 0 72 0.00126667 
6516 2 0.00724303 0.0631268 -0.0257169 0 0 0 -0.055863 -1.19792 0.902251 0 -2.99089e-05 0 0 0 0 0 0 0 0 0 0 0 0 0 0 0 0 0 26 0.00113333 
4239 1 0.00311607 0.0662569 -0.0263872 0 0 0 0.816918 0.949754 0.383359 -0.0583449 -0.0727951 0.0222576 1 0 0 0 0 0 0 0 0 0 0 0 0 0 0 0 98 0.001 
1855 3 0.00885599 0.0660433 -0.0244278 0 0 0 0.63839 -1.56362 0.222055 0 -4.17556e-05 0 0 0 0 0 0 0 0 0 0 0 0 0 0 0 0 0 130 0.00126667 
7762 3 0.00247145 0.0698343 -0.026248 0 0 0 -0.0514599 0.182924 0.239269 0 -4.17556e-05 0 0 0 0 0 0 0 0 0 0 0 0 0 0 0 0 0 1 0.00126667 
6406 5 0.00471707 0.0680735 -0.0258277 0 0 0 -0.123 -0.269668 -0.140828 0.0583449 0.0727005 -0.0222576 1 0 0 0 0 0 0 0 0 0 0 0 0 0 0 0 91 0.00153333 
6456 1 0.0135187 0.0693165 -0.0253906 0 0 0 -0.308993 -1.21833 1.08235 0 -2.0546e-05 0 0 0 0 0 0 0 0 0 0 0 0 0 0 0 0 0 26 0.001 
3620 1 0.0148966 0.0713284 -0.026003 0 0 0 -1.72155 0.371 0.0063444 0 -2.0546e-05 0 0 0 0 0 0 0 0 0 0 0 0 0 0 0 0 0 93 0.001 
5026 3 0.00330516 0.0744516 -0.0258252 0 0 0 0.255012 -0.187532 0.312292 0 -4.17556e-05 0 0 0 0 0 0 0 0 0 0 0 0 0 0 0 0 0 108 0.00126667 
1941 2 0.0112036 0.0536011 -0.0189008 0 0 0 -3.31101 -0.452305 3.60524 0 -2.99089e-05 0 0 0 0 0 0 0 0 0 0 0 0 0 0 0 0 0 113 0.00113333 
6531 3 0.00435399 0.0583506 -0.021737 0 0 0 -0.886662 0.304667 0.555993 0 -4.17556e-05 0 0 0 0 0 0 0 0 0 0 0 0 0 0 0 0 0 83 0.00126667 
4221 3 0.00607616 0.06419 -0.0209961 0 0 0 -0.397928 1.28757 1.64529 0 -4.17556e-05 0 0 0 0 0 0 0 0 0 0 0 0 0 0 0 0 0 147 0.00126667 
4134 2 0.0147589 0.0629798 -0.0254427 0 0 0 -12.2524 -6.30831 6.49112 -0.0240103 -0.108011 0.304639 0 0 1 0 0 0 0 0 0 0 0 0 0 0 0 0 151 0.00113333 
7942 8 0.00296334 0.070988 -0.0232094 0 0 0 0.0972248 0.270012 0.204436 0 -0.000148473 0 0 0 0 0 0 0 0 0 0 0 0 0 0 0 0 0 0 0.00193333 
6579 1 0.00564749 0.0693349 -0.0218386 0 0 0 0.0516087 -0.417847 2.31396 0 -2.0546e-05 0 0 0 0 0 0 0 0 0 0 0 0 0 0 0 0 0 42 0.001 
1885 1 0.0170555 0.0734411 -0.0217461 0 0 0 -1.46178 0.292277 -2.53155 0 -2.0546e-05 0 0 0 0 0 0 0 0 0 0 0 0 0 0 0 0 0 161 0.001 
6916 2 0.0100806 0.0394639 -0.0176748 0 0 0 2.9285 -4.12113 0.116733 0 -2.99089e-05 0 0 0 0 0 0 0 0 0 0 0 0 0 0 0 0 0 31 0.00113333 
2247 1 0.00257519 0.0723152 -0.0192173 0 0 0 0.00262559 0.00697495 1.02615 0 -2.0546e-05 0 0 0 0 0 0 0 0 0 0 0 0 0 0 0 0 0 103 0.001 
2598 5 0.00370838 0.048404 -0.0137495 0 0 0 0.809865 -0.6821 2.52002 0 -7.40691e-05 0 0 0 0 0 0 0 0 0 0 0 0 0 0 0 0 0 239 0.00153333 
7779 2 0.00347549 0.0725888 -0.0136677 0 0 0 0.612722 -4.70179 0.843366 0 -2.99089e-05 0 0 0 0 0 0 0 0 0 0 0 0 0 0 0 0 0 2 0.00113333 
6058 2 0.00653373 0.07039 0.00968303 0 0 0 -0.797191 0.0521567 -0.885195 0 -2.99089e-05 0 0 0 0 0 0 0 0 0 0 0 0 0 0 0 0 0 64 0.00113333 
5275 2 0.00756969 0.0739424 -0.00793553 0 0 0 -0.0579197 -0.522158 -2.35176 0 -2.99089e-05 0 0 0 0 0 0 0 0 0 0 0 0 0 0 0 0 0 96 0.00113333 
7186 1 0.00447237 0.0507889 -0.00332246 0 0 0 1.11862 -1.59013 5.77491 0 -2.0546e-05 0 0 0 0 0 0 0 0 0 0 0 0 0 0 0 0 0 22 0.001 
25 6 0.0106388 0.0674988 0.00823912 0 0 0 3.68465 15.2285 -19.0264 0 -9.51205e-05 0 0 0 0 0 0 0 0 0 0 0 0 0 0 0 0 0 293 0.00166667 