ITEM: TIMESTEP
20000000
ITEM: NUMBER OF ATOMS
6873
ITEM: BOX BOUNDS ff ff ff
-0.01 0.45
-0.15 0.15
-0.08 0.1
ITEM: ATOMS id type x y z ix iy iz vx vy vz fx fy fz c_cc_1 c_cc_2 c_cc_3 c_cc_4 c_cc_5 c_cc_6 c_cc_7 c_cc_8 c_cc_9 c_cc_10 c_cc_11 c_cc_12 c_cc_13 c_cc_14 c_cc_15 c_cc_16 f_fppacc radius 
3986 1 0.00364211 -0.00673932 -0.0603755 0 0 0 -1.8441e-06 3.36349e-13 3.62978e-12 2.59839e-18 0 0 0 0 0 0 0 0 0 0 0 0 0 0 0 0 0 0 3 0.001 
4889 2 0.0140958 -0.00892969 -0.0601725 0 0 0 5.54333e-07 -4.47735e-13 -4.83183e-12 -1.66113e-18 -1.38778e-17 -1.11022e-16 0 0 0 0 0 0 0 0 0 0 0 0 0 0 0 0 50 0.00113333 
280 1 0.00122549 -0.00505823 -0.0605313 0 0 0 7.66633e-07 -5.19586e-13 -5.60723e-12 -1.28345e-18 0 0 0 0 0 0 0 0 0 0 0 0 0 0 0 0 0 0 1 0.001 
20 1 0.00207404 -0.0217372 -0.0569657 0 0 0 4.91455e-07 1.14765e-12 4.03356e-12 3.36379e-20 0 0 0 0 0 0 0 0 0 0 0 0 0 0 0 0 0 0 47 0.001 
5968 4 0.0108199 -0.0204272 -0.0573385 0 0 0 2.5954e-06 -8.37142e-13 -2.94225e-12 1.17367e-18 0 0 0 0 0 0 0 0 0 0 0 0 0 0 0 0 0 0 1 0.0014 
1338 1 0.0135001 -0.0199184 -0.0574832 0 0 0 -2.77398e-06 -1.88044e-13 -6.60908e-13 2.63921e-20 0 0 0 0 0 0 0 0 0 0 0 0 0 0 0 0 0 0 58 0.001 
141 1 0.0015196 -0.0193933 -0.0576326 0 0 0 7.5297e-06 -5.96606e-13 -2.09685e-12 -2.03203e-17 0 0 0 0 0 0 0 0 0 0 0 0 0 0 0 0 0 0 0 0.001 
5568 1 0.011212 -0.0169037 -0.058341 0 0 0 5.15081e-06 4.7388e-13 1.66551e-12 1.72877e-19 0 0 0 0 0 0 0 0 0 0 0 0 0 0 0 0 0 0 35 0.001 
7074 1 0.0152466 -0.0168703 -0.0583505 0 0 0 -2.11249e-07 6.13715e-13 2.15698e-12 -5.53685e-21 0 0 0 0 0 0 0 0 0 0 0 0 0 0 0 0 0 0 0 0.001 
3516 1 0.017389 -0.0181171 -0.0579957 0 0 0 -4.63942e-08 5.12143e-13 1.79999e-12 1.17581e-21 0 0 0 0 0 0 0 0 0 0 0 0 0 0 0 0 0 0 49 0.001 
4006 1 0.0082887 -0.0144417 -0.0590415 0 0 0 4.47657e-07 -5.53125e-13 -1.94403e-12 4.80833e-21 0 0 0 0 0 0 0 0 0 0 0 0 0 0 0 0 0 0 12 0.001 
7356 5 0.00668585 -0.00688131 -0.0578855 0 0 0 0.836137 -4.72647 0.701136 -0.0454777 0.0996778 0.180307 0 0 0 0 0 0 0 0 0 0 0 0 0 0 0 0 2 0.00153333 
1153 3 0.0116671 -0.00790805 -0.0567742 0 0 0 1.1525 -1.01817 0.548213 0 -4.17556e-05 0 0 0 0 0 0 0 0 0 0 0 0 0 0 0 0 0 180 0.00126667 
2105 1 0.0169789 -0.0253076 -0.0552516 0 0 0 -9.8887e-07 -1.72361e-12 -3.46147e-12 2.56745e-18 0 0 0 0 0 0 0 0 0 0 0 0 0 0 0 0 0 0 103 0.001 
2338 1 0.00254082 -0.0219341 -0.0547211 0 0 0 0.363166 -5.06728 1.58295 0.00192281 -5.8368e-05 0.060202 0 0 0 0 0 0 0 0 0 0 0 0 0 0 0 0 71 0.001 
402 8 0.00525462 -0.0110432 -0.0553372 0 0 0 0.286325 -3.62396 0.946763 0 -0.000148473 0 0 0 0 0 0 0 0 0 0 0 0 0 0 0 0 0 419 0.00193333 
7892 2 0.00608008 -0.00463422 -0.0557408 0 0 0 3.03129 -4.5987 3.75101 0 -2.99089e-05 0 0 0 0 0 0 0 0 0 0 0 0 0 0 0 0 0 1 0.00113333 
4831 7 0.0132841 -0.00407724 -0.0552617 0 0 0 5.85056 -16.7126 6.02687 0 -0.000119824 0 0 0 0 0 0 0 0 0 0 0 0 0 0 0 0 0 196 0.0018 
4215 1 0.00100255 -0.0330465 -0.0511578 0 0 0 -1.02183e-07 4.56858e-13 6.04977e-13 1.15758e-20 0 0 0 0 0 0 0 0 0 0 0 0 0 0 0 0 0 0 37 0.001 
278 1 0.0185709 -0.0328341 -0.0513182 0 0 0 2.84203e-06 2.43343e-12 3.22239e-12 2.04753e-17 0 0 0 0 0 0 0 0 0 0 0 0 0 0 0 0 0 0 39 0.001 
2447 3 0.00272239 -0.0318187 -0.0520669 0 0 0 -1.65886e-06 5.07274e-15 9.35337e-15 4.96756e-07 0 0 0 0 0 0 0 0 0 0 0 0 0 0 0 0 0 0 37 0.00126667 
5867 1 0.00531447 -0.0314033 -0.0522163 0 0 0 -5.54829e-06 -2.69144e-12 -5.40514e-12 1.33444e-18 0 0 0 0 0 0 0 0 0 0 0 0 0 0 0 0 0 0 7 0.001 
1956 4 0.0147617 -0.017637 -0.0525604 0 0 0 0.722663 -2.25332 0.615003 0 -5.63783e-05 0 0 0 0 0 0 0 0 0 0 0 0 0 0 0 0 0 230 0.0014 
826 6 0.00270871 -0.00506705 -0.0533218 0 0 0 -1.22842 -6.20838 2.69036 0 -9.51205e-05 0 0 0 0 0 0 0 0 0 0 0 0 0 0 0 0 0 286 0.00166667 
2213 1 0.00549132 -0.0038093 -0.0522715 0 0 0 0.796577 -3.43118 -2.39261 0 -2.0546e-05 0 0 0 0 0 0 0 0 0 0 0 0 0 0 0 0 0 245 0.001 
2818 1 0.0173799 -0.0355237 -0.0492871 0 0 0 -1.16416e-06 -5.13126e-13 -6.7949e-13 5.19254e-18 0 0 0 0 0 0 0 0 0 0 0 0 0 0 0 0 0 0 67 0.001 
6458 2 0.0109803 -0.0288376 -0.0497231 0 0 0 -0.479912 -14.4133 11.5502 0 -2.99089e-05 0 0 0 0 0 0 0 0 0 0 0 0 0 0 0 0 0 65 0.00113333 
1165 7 0.0143496 -0.0183793 -0.0467159 0 0 0 0.430677 -5.16202 1.23077 0 -0.000119824 0 0 0 0 0 0 0 0 0 0 0 0 0 0 0 0 0 342 0.0018 
2941 1 0.00195732 -0.0397628 -0.0460859 0 0 0 1.26228e-06 -1.12349e-12 -1.48773e-12 4.84186e-19 0 0 0 0 0 0 0 0 0 0 0 0 0 0 0 0 0 0 51 0.001 
2379 1 0.00559655 -0.0411224 -0.0450489 0 0 0 0.0149665 9.19232e-14 8.83051e-14 2.13624e-18 -8.89046e-18 9.1073e-18 0 0 0 0 0 0 0 0 0 0 0 0 0 0 0 0 101 0.001 
5017 3 0.0166003 -0.0418502 -0.0442517 0 0 0 5.47249e-07 -5.9022e-12 -5.38055e-12 2.24533e-17 0 0 0 0 0 0 0 0 0 0 0 0 0 0 0 0 0 0 0 0.00126667 
7101 3 0.0153276 -0.0392714 -0.046457 0 0 0 1.59041e-06 7.91553e-13 1.04819e-12 4.39988e-17 0 0 0 0 0 0 0 0 0 0 0 0 0 0 0 0 0 0 0 0.00126667 
25 3 0.0102292 -0.0128675 -0.0461106 0 0 0 -0.0643914 -1.71904 -0.480456 0 -4.17556e-05 0 0 0 0 0 0 0 0 0 0 0 0 0 0 0 0 0 201 0.00126667 
6944 1 0.00996601 -0.048711 -0.0367087 0 0 0 -0.0437916 -5.89239e-12 -3.77756e-12 1.65441e-17 1.81712e-16 -2.83627e-16 0 0 0 0 0 0 0 0 0 0 0 0 0 0 0 0 0 0.001 
6693 1 0.0170773 -0.0200632 -0.0371238 0 0 0 0.0530813 -37.4079 -13.7894 0 -2.0546e-05 0 0 0 0 0 0 0 0 0 0 0 0 0 0 0 0 0 29 0.001 
2885 4 0.00940894 -0.00279272 -0.0388475 0 0 0 -1.02169 -3.4108 3.76827 0 -5.63783e-05 0 0 0 0 0 0 0 0 0 0 0 0 0 0 0 0 0 232 0.0014 
6159 1 0.017059 -0.0492259 -0.0358775 0 0 0 -2.61155e-06 -4.47194e-12 -2.76891e-12 3.52077e-22 0 0 0 0 0 0 0 0 0 0 0 0 0 0 0 0 0 0 0 0.001 
6792 2 0.0104534 -0.0353467 -0.0358606 0 0 0 0.157781 -4.11921 2.8014 0 -2.99089e-05 0 0 0 0 0 0 0 0 0 0 0 0 0 0 0 0 0 40 0.00113333 
2640 4 0.00827755 -0.0156729 -0.0360396 0 0 0 0.741541 -1.39776 2.4287 0 -5.63783e-05 0 0 0 0 0 0 0 0 0 0 0 0 0 0 0 0 0 177 0.0014 
7216 1 0.0164412 -0.0527042 -0.0302599 0 0 0 3.25118e-06 -1.06838e-12 -6.61515e-13 -1.03136e-17 0 0 0 0 0 0 0 0 0 0 0 0 0 0 0 0 0 0 0 0.001 
1843 3 0.00829201 -0.0472297 -0.0312982 0 0 0 -1.16431 -7.27704 9.94018 0 -4.17556e-05 0 0 0 0 0 0 0 0 0 0 0 0 0 0 0 0 0 150 0.00126667 
2585 2 0.0127339 -0.0534214 -0.0291016 0 0 0 -1.67304e-06 2.26473e-12 1.40226e-12 7.43453e-19 0 0 0 0 0 0 0 0 0 0 0 0 0 0 0 0 0 0 69 0.00113333 
695 4 0.0104689 -0.0497507 -0.0296357 0 0 0 -0.414313 -3.47122 5.09646 0 -5.63783e-05 0 0 0 0 0 0 0 0 0 0 0 0 0 0 0 0 0 203 0.0014 
2134 2 0.0167801 -0.0549452 -0.0263118 0 0 0 7.33882e-08 2.86001e-12 1.10797e-12 1.32908e-19 0 0 0 0 0 0 0 0 0 0 0 0 0 0 0 0 0 0 13 0.00113333 
3631 2 0.0153257 -0.0531214 -0.0221767 0 0 0 1.5535 -6.29548 9.16395 0 -2.99089e-05 0 0 0 0 0 0 0 0 0 0 0 0 0 0 0 0 0 155 0.00113333 
3625 2 0.00524992 -0.0437491 -0.0212037 0 0 0 -1.06511 -5.04306 5.06882 0 -2.99089e-05 0 0 0 0 0 0 0 0 0 0 0 0 0 0 0 0 0 111 0.00113333 
5636 1 0.00163947 -0.0586034 -0.0168688 0 0 0 1.31031e-07 4.26592e-12 1.65262e-12 -2.57114e-18 0 0 0 0 0 0 0 0 0 0 0 0 0 0 0 0 0 0 36 0.001 
7894 4 0.00283463 -0.0553609 -0.0157596 0 0 0 0.562376 -1.90105 7.8563 0 -5.63783e-05 0 0 0 0 0 0 0 0 0 0 0 0 0 0 0 0 0 6 0.0014 
6098 2 0.0022993 -0.0542086 -0.0117778 0 0 0 1.11054 -11.1795 7.14519 0 -2.99089e-05 0 0 0 0 0 0 0 0 0 0 0 0 0 0 0 0 0 61 0.00113333 
7005 3 0.00433471 -0.0582199 -0.00523773 0 0 0 0.600533 -1.17017 8.27544 0 -4.17556e-05 0 0 0 0 0 0 0 0 0 0 0 0 0 0 0 0 0 20 0.00126667 
7843 2 0.00294118 -0.0542206 -0.00562423 0 0 0 -11.6777 -15.4355 47.3648 0 -2.99089e-05 0 0 0 0 0 0 0 0 0 0 0 0 0 0 0 0 0 0 0.00113333 
5160 1 0.00577726 -0.0580297 -0.000973857 0 0 0 -4.17712 -2.86962 16.119 0 -2.0546e-05 0 0 0 0 0 0 0 0 0 0 0 0 0 0 0 0 0 49 0.001 
4127 1 0.0168146 -0.0397845 0.00779945 0 0 0 0.260602 -0.115488 1.4137 0 -2.0546e-05 0 0 0 0 0 0 0 0 0 0 0 0 0 0 0 0 0 80 0.001 
7604 1 0.0135162 -0.0590464 0.0146874 0 0 0 -7.94702e-07 -2.46053e-12 4.59953e-13 5.86212e-20 0 0 0 0 0 0 0 0 0 0 0 0 0 0 0 0 0 0 0 0.001 
1517 1 0.0123144 -0.0566162 0.0219985 0 0 0 -2.06667e-07 3.52669e-13 -1.36625e-13 2.58725e-18 0 0 0 0 0 0 0 0 0 0 0 0 0 0 0 0 0 0 1 0.001 
3858 1 0.00546706 -0.0549244 0.0263655 0 0 0 -2.15875e-07 -2.05553e-12 7.96317e-13 5.14162e-18 0 0 0 0 0 0 0 0 0 0 0 0 0 0 0 0 0 0 0 0.001 
7166 1 0.0100618 -0.0525662 0.0265668 0 0 0 0.750928 0.87031 3.90858 0 -2.0546e-05 0 0 0 0 0 0 0 0 0 0 0 0 0 0 0 0 0 25 0.001 
7792 2 0.0117722 -0.0528196 0.0248263 0 0 0 0.20032 8.33768 18.3469 0 -2.99089e-05 0 0 0 0 0 0 0 0 0 0 0 0 0 0 0 0 0 0 0.00113333 
1685 6 0.00352717 -0.0482677 0.0318092 0 0 0 0.0332155 3.54517 4.99232 0 -9.51205e-05 0 0 0 0 0 0 0 0 0 0 0 0 0 0 0 0 0 296 0.00166667 
508 3 0.00308592 -0.0489337 0.0364366 0 0 0 -0.000136041 -3.48482e-13 1.85786e-13 -4.83706e-06 1.77636e-15 -8.88178e-16 0 0 0 0 0 0 0 0 0 0 0 0 0 0 0 0 2 0.00126667 
535 2 0.00635381 -0.0466007 0.0359372 0 0 0 1.12216 3.50372 4.70587 0.00393433 0.0480465 -0.124387 0 0 0 0 0 0 0 0 0 0 0 0 0 0 0 0 213 0.00113333 
3324 1 0.0089374 -0.0420181 0.0355276 0 0 0 0.454734 -1.91522 12.16 0 -2.0546e-05 0 0 0 0 0 0 0 0 0 0 0 0 0 0 0 0 0 51 0.001 
5917 2 0.00675822 -0.0305309 0.036147 0 0 0 -1.04702 6.05606 11.8821 0 -2.99089e-05 0 0 0 0 0 0 0 0 0 0 0 0 0 0 0 0 0 67 0.00113333 
7590 6 0.00298649 -0.0360861 0.0372536 0 0 0 4.63218 16.1177 19.6306 0 -9.51205e-05 0 0 0 0 0 0 0 0 0 0 0 0 0 0 0 0 0 7 0.00166667 
7607 2 0.0127086 -0.0365695 0.0457962 0 0 0 1.75223 4.00937 2.70251 0 -2.99089e-05 0 0 0 0 0 0 0 0 0 0 0 0 0 0 0 0 0 3 0.00113333 
1130 1 0.00444519 -0.0220242 0.0568823 0 0 0 -0.174627 8.38273e-13 -2.54427e-12 1.05188e-06 -4.56558e-16 -1.48753e-16 0 0 0 0 0 0 0 0 0 0 0 0 0 0 0 0 19 0.001 
2973 1 0.00740182 -0.0218353 0.0569379 0 0 0 9.75747e-07 -1.38503e-08 -3.40702e-09 -1.08256e-13 -5.95292e-15 8.98196e-15 0 0 0 0 0 0 0 0 0 0 0 0 0 0 0 0 65 0.001 
422 1 0.00939457 -0.0217782 0.0569541 0 0 0 -9.75749e-07 1.38502e-08 3.40702e-09 1.08053e-13 4.26742e-15 -3.09128e-15 0 0 0 0 0 0 0 0 0 0 0 0 0 0 0 0 84 0.001 
5252 1 0.0148318 -0.0196062 0.0575721 0 0 0 -2.81071e-06 -1.07436e-12 3.77597e-12 8.02414e-22 0 0 0 0 0 0 0 0 0 0 0 0 0 0 0 0 0 0 62 0.001 
1967 1 0.00589544 -0.0179306 0.0580488 0 0 0 -7.41813e-07 3.40618e-14 -1.19715e-13 -1.29206e-18 0 0 0 0 0 0 0 0 0 0 0 0 0 0 0 0 0 0 25 0.001 
130 1 0.0157525 -0.0164124 0.0584808 0 0 0 -2.7146e-06 1.14076e-12 8.83005e-13 2.05742e-14 9.11984e-14 -1.58584e-14 0 0 0 0 0 0 0 0 0 0 0 0 0 0 0 0 2 0.001 
3336 1 0.00437299 -0.0162242 0.0585343 0 0 0 -7.64378e-06 5.28893e-14 -1.8589e-13 -2.06332e-17 -1.0842e-19 0 0 0 0 0 0 0 0 0 0 0 0 0 0 0 0 0 0 0.001 
1039 1 0.00954698 -0.0129023 0.0594795 0 0 0 -1.0998e-06 -3.25511e-13 1.14406e-12 2.57777e-18 0 0 0 0 0 0 0 0 0 0 0 0 0 0 0 0 0 0 83 0.001 
1796 1 0.00951332 -0.00180963 0.0608323 0 0 0 1.09021e-06 9.5992e-14 -1.03592e-12 -1.06166e-20 5.42101e-20 -4.33681e-19 0 0 0 0 0 0 0 0 0 0 0 0 0 0 0 0 1 0.001 
1405 4 0.0125612 -0.00188519 0.0608253 0 0 0 1.46668e-06 -1.5504e-13 1.67316e-12 -3.51728e-19 0 0 0 0 0 0 0 0 0 0 0 0 0 0 0 0 0 0 34 0.0014 
723 4 0.0157322 -0.00240255 0.0607774 0 0 0 9.64057e-07 -3.97127e-13 4.36014e-12 -2.75572e-15 -6.10623e-16 -4.44089e-16 0 0 0 0 0 0 0 0 0 0 0 0 0 0 0 0 5 0.0014 
2867 1 0.0170496 0.00437739 -0.0605962 0 0 0 0.00189707 -0.00370389 0.0684743 0.000498143 0.000755791 0.000645444 0 0 0 0 0 0 0 0 0 0 0 0 0 0 0 0 0 0.001 
823 2 0.0115113 0.00891229 -0.0601742 0 0 0 2.63542e-06 4.24727e-13 -4.58354e-12 -1.84842e-19 0 0 0 0 0 0 0 0 0 0 0 0 0 0 0 0 0 0 0 0.00113333 
3514 2 0.0170522 0.0106847 -0.0600099 0 0 0 -1.55579e-07 4.76487e-14 -5.14215e-13 -9.46377e-22 -1.38778e-17 1.11022e-16 0 0 0 0 0 0 0 0 0 0 0 0 0 0 0 0 82 0.00113333 
1293 2 0.00676148 0.0123159 -0.0596463 0 0 0 -1.9332e-06 -2.63068e-13 9.24574e-13 1.50855e-17 0 0 0 0 0 0 0 0 0 0 0 0 0 0 0 0 0 0 3 0.00113333 
3025 1 0.00979429 0.0126198 -0.0595599 0 0 0 -5.08138e-06 5.21479e-13 -1.83281e-12 -6.91599e-20 0 0 0 0 0 0 0 0 0 0 0 0 0 0 0 0 0 0 18 0.001 
1807 1 0.0168205 0.0160049 -0.0585967 0 0 0 3.33821e-07 -5.54978e-15 1.95013e-14 6.35314e-19 0 0 0 0 0 0 0 0 0 0 0 0 0 0 0 0 0 0 73 0.001 
797 2 0.0160802 0.0137136 -0.0592487 0 0 0 -4.50901e-06 1.23615e-13 -4.34467e-13 1.15699e-18 0 0 0 0 0 0 0 0 0 0 0 0 0 0 0 0 0 0 140 0.00113333 
4851 1 0.00111459 0.018824 -0.0577946 0 0 0 1.93288e-07 3.91722e-13 -1.37676e-12 3.14517e-22 0 0 0 0 0 0 0 0 0 0 0 0 0 0 0 0 0 0 18 0.001 
914 2 0.0155484 0.0190642 -0.0577263 0 0 0 -2.16155e-06 1.78249e-12 -6.26479e-12 -5.3597e-19 0 0 0 0 0 0 0 0 0 0 0 0 0 0 0 0 0 0 11 0.00113333 
1658 1 0.0179156 0.0179671 -0.0580384 0 0 0 -1.64595e-06 8.50021e-13 -2.98751e-12 -2.13361e-20 0 0 0 0 0 0 0 0 0 0 0 0 0 0 0 0 0 0 95 0.001 
4247 1 0.00667441 0.0203108 -0.0573716 0 0 0 -3.04138e-06 1.90592e-12 -6.69863e-12 -1.42794e-20 0 0 0 0 0 0 0 0 0 0 0 0 0 0 0 0 0 0 82 0.001 
6190 1 0.00450482 0.0202521 -0.0573883 0 0 0 1.45525e-06 -1.56804e-13 5.51109e-13 4.45778e-22 0 0 0 0 0 0 0 0 0 0 0 0 0 0 0 0 0 0 0 0.001 
360 1 0.00596838 0.0221188 -0.0568394 0 0 0 0.000572794 1.37268e-12 -2.755e-12 2.62176e-18 -4.11997e-17 -2.0383e-17 0 0 0 0 0 0 0 0 0 0 0 0 0 0 0 0 11 0.001 
7772 7 0.00290541 0.00089988 -0.0561155 0 0 0 -8.00352 -5.65366 1.09414 0 -0.000119824 0 0 0 0 0 0 0 0 0 0 0 0 0 0 0 0 0 0 0.0018 
1333 1 0.00452329 0.0139629 -0.0559661 0 0 0 0.296614 -0.459991 0.169754 0 -2.0546e-05 0 0 0 0 0 0 0 0 0 0 0 0 0 0 0 0 0 57 0.001 
4565 3 0.00834791 0.0137651 -0.0553472 0 0 0 -0.770048 -1.98064 -0.856691 -0.111006 -0.0261195 -0.0342458 0 0 1 0 0 0 0 0 0 0 0 0 0 0 0 0 139 0.00126667 
1662 5 0.0110076 0.0131709 -0.0549535 0 0 0 -5.0878 -13.4443 -1.8195 0.111006 0.0260037 0.0342458 0 0 1 0 0 0 0 0 0 0 0 0 0 0 0 0 198 0.00153333 
1934 2 0.00339696 0.0226294 -0.0565852 0 0 0 9.92572e-07 -3.20077e-13 6.42798e-13 -2.1343e-17 -5.55112e-17 1.11022e-16 0 0 0 0 0 0 0 0 0 0 0 0 0 0 0 0 56 0.00113333 
6220 1 0.00497014 0.0241891 -0.0558085 0 0 0 1.51473e-06 1.36382e-15 -2.7378e-15 5.14432e-18 0 0 0 0 0 0 0 0 0 0 0 0 0 0 0 0 0 0 0 0.001 
3913 6 0.0174944 0.0245813 -0.0556133 0 0 0 4.08843e-06 3.45155e-13 -6.93137e-13 4.69571e-18 4.44089e-16 -8.88178e-16 0 0 0 0 0 0 0 0 0 0 0 0 0 0 0 0 173 0.00166667 
6334 1 0.00237641 0.0280288 -0.0538966 0 0 0 2.01465e-06 6.26812e-13 -1.25881e-12 5.16768e-18 0 0 0 0 0 0 0 0 0 0 0 0 0 0 0 0 0 0 0 0.001 
1677 1 0.0063226 0.0278852 -0.0539681 0 0 0 2.48797e-06 -1.5972e-12 3.20762e-12 3.10148e-19 0 0 0 0 0 0 0 0 0 0 0 0 0 0 0 0 0 0 6 0.001 
101 2 0.00944711 0.0271648 -0.0543268 0 0 0 4.15566e-06 4.46966e-13 -8.9763e-13 -6.21753e-17 0 0 0 0 0 0 0 0 0 0 0 0 0 0 0 0 0 0 3 0.00113333 
6136 1 0.0152547 0.0277202 -0.0540503 0 0 0 1.35449e-06 -2.12431e-12 4.2662e-12 -6.69164e-20 0 0 0 0 0 0 0 0 0 0 0 0 0 0 0 0 0 0 0 0.001 
584 4 0.00862681 0.0146732 -0.051707 0 0 0 -0.886457 -2.52508 -1.61861 0 -5.63783e-05 0 0 0 0 0 0 0 0 0 0 0 0 0 0 0 0 0 220 0.0014 
682 4 0.0043569 0.0171049 -0.0527721 0 0 0 0.551532 -1.21131 0.447192 0 -5.63783e-05 0 0 0 0 0 0 0 0 0 0 0 0 0 0 0 0 0 213 0.0014 
1753 2 0.00106751 0.0321149 -0.0518479 0 0 0 -5.9961e-16 -4.3824e-16 6.18714e-16 0 0 -5.55112e-17 0 1 0 0 0 0 0 0 0 0 0 0 0 0 0 0 165 0.00113333 
1339 1 0.00146906 0.0296276 -0.0531005 0 0 0 -1.28573e-06 1.22329e-13 -2.45673e-13 -2.0686e-19 0 0 0 0 0 0 0 0 0 0 0 0 0 0 0 0 0 0 32 0.001 
2513 3 0.00329547 0.0322458 -0.0517667 0 0 0 -3.1304e-16 -3.84203e-16 -5.91356e-16 0 0 0 0 1 0 0 0 0 0 0 0 0 0 0 0 0 0 0 172 0.00126667 
7839 3 0.0110826 0.0335043 -0.0508121 0 0 0 -1.30874e-06 -4.99557e-13 6.61522e-13 4.46172e-17 0 0 0 0 0 0 0 0 0 0 0 0 0 0 0 0 0 0 0 0.00126667 
1365 1 0.00524262 0.035161 -0.049561 0 0 0 -5.15746e-06 -2.83325e-12 3.75183e-12 2.07277e-18 0 0 0 0 0 0 0 0 0 0 0 0 0 0 0 0 0 0 10 0.001 
2716 1 0.00978952 0.0354171 -0.0493676 0 0 0 1.16784e-07 -1.72146e-13 2.27956e-13 1.19795e-20 0 0 0 0 0 0 0 0 0 0 0 0 0 0 0 0 0 0 95 0.001 
6247 1 0.00529444 0.0378429 -0.0475357 0 0 0 -7.21112e-06 -4.24782e-12 5.62502e-12 6.09357e-19 0 0 0 0 0 0 0 0 0 0 0 0 0 0 0 0 0 0 0 0.001 
4992 4 0.00990831 0.0246291 -0.0460441 0 0 0 0.383232 -0.980092 -0.685313 0 -5.63783e-05 0 0 0 0 0 0 0 0 0 0 0 0 0 0 0 0 0 135 0.0014 
6074 1 0.00741528 0.0314781 -0.0461603 0 0 0 0.0262485 -1.87589 -1.32846 0 -2.0546e-05 0 0 0 0 0 0 0 0 0 0 0 0 0 0 0 0 0 22 0.001 
7903 2 0.00277337 0.0337703 -0.045595 0 0 0 0.0321858 -0.846576 0.429599 0.000495204 0.00457766 0.00033124 0 1 0 0 0 0 0 0 0 0 0 0 0 0 0 0 1 0.00113333 
4285 3 0.0030038 0.0361557 -0.0454682 0 0 0 -0.0748619 -0.0215261 -0.489699 -0.000495204 -0.00464933 -0.00033124 0 1 0 0 0 0 0 0 0 0 0 0 0 0 0 0 165 0.00126667 
392 3 0.00288643 0.0406566 -0.0453973 0 0 0 -9.83429e-08 -3.66346e-15 3.99876e-15 -1.62421e-08 0 0 0 0 0 0 0 0 0 0 0 0 0 0 0 0 0 0 4 0.00126667 
4798 2 0.0124035 0.0423196 -0.0437367 0 0 0 -7.23618e-07 -8.29836e-13 7.56493e-13 3.22377e-19 0 0 0 0 0 0 0 0 0 0 0 0 0 0 0 0 0 0 112 0.00113333 
5893 1 0.0148166 0.0239491 -0.0420713 0 0 0 -0.076455 -5.04403 -2.74469 0 -2.0546e-05 0 0 0 0 0 0 0 0 0 0 0 0 0 0 0 0 0 59 0.001 
4940 3 0.0121969 0.0274887 -0.041869 0 0 0 -0.787591 -3.86292 -1.86885 0 -4.17556e-05 0 0 0 0 0 0 0 0 0 0 0 0 0 0 0 0 0 168 0.00126667 
2255 2 0.00305469 0.0313443 -0.0427781 0 0 0 3.9844 -2.27114 -0.777538 0 -2.99089e-05 0 0 0 0 0 0 0 0 0 0 0 0 0 0 0 0 0 126 0.00113333 
2124 4 0.00244792 0.0378013 -0.0402891 0 0 0 0.00304773 -0.537311 -0.383563 0 -5.63783e-05 0 0 0 0 0 0 0 0 0 0 0 0 0 0 0 0 0 278 0.0014 
4197 4 0.00516241 0.0359799 -0.0411473 0 0 0 -0.428369 1.13267 -2.14167 0 -5.63783e-05 0 0 0 0 0 0 0 0 0 0 0 0 0 0 0 0 0 203 0.0014 
4432 1 0.00200751 0.0411886 -0.0410286 0 0 0 -0.325462 -0.605464 -0.49006 0 -2.0546e-05 0 0 0 0 0 0 0 0 0 0 0 0 0 0 0 0 0 67 0.001 
7740 1 0.0072715 0.040153 -0.0428794 0 0 0 0.177239 -1.04476 -1.08906 0 -2.0546e-05 0 0 0 0 0 0 0 0 0 0 0 0 0 0 0 0 0 0 0.001 
3769 3 0.008743 0.0415387 -0.0410424 0 0 0 -1.56719 -1.44741 -1.28207 0 -4.17556e-05 0 0 0 0 0 0 0 0 0 0 0 0 0 0 0 0 0 148 0.00126667 
284 1 0.0145709 0.042692 -0.0433282 0 0 0 -2.60312e-07 -1.04318e-12 9.5098e-13 -5.01826e-20 0 0 0 0 0 0 0 0 0 0 0 0 0 0 0 0 0 0 0 0.001 
2892 3 0.00810711 0.00818326 -0.0381898 0 0 0 0.0287049 -1.50884 0.520826 0 -4.17556e-05 0 0 0 0 0 0 0 0 0 0 0 0 0 0 0 0 0 152 0.00126667 
7663 2 0.0174403 0.00692837 -0.0376048 0 0 0 0.591368 -3.85614 -2.36286 0 -2.99089e-05 0 0 0 0 0 0 0 0 0 0 0 0 0 0 0 0 0 2 0.00113333 
1332 8 0.00530866 0.0119018 -0.0394878 0 0 0 -0.419331 -6.70332 -9.38751 0 -0.000148473 0 0 0 0 0 0 0 0 0 0 0 0 0 0 0 0 0 367 0.00193333 
1303 6 0.00595657 0.0224899 -0.0398284 0 0 0 -1.26847 -2.81181 -3.72137 0 -9.51205e-05 0 0 0 0 0 0 0 0 0 0 0 0 0 0 0 0 0 259 0.00166667 
1341 1 0.00855347 0.0364368 -0.0388576 0 0 0 -0.695962 1.14242 -0.98104 0 -2.0546e-05 0 0 0 0 0 0 0 0 0 0 0 0 0 0 0 0 0 102 0.001 
5853 2 0.00284363 0.040322 -0.03669 0 0 0 0.103805 -0.711891 -0.305251 0 -2.99089e-05 0 0 0 0 0 0 0 0 0 0 0 0 0 0 0 0 0 83 0.00113333 
4464 13 0.0126928 0.0391839 -0.0381598 0 0 0 -1.05145 -2.36646 -1.50784 0 -0.000361117 0 0 0 0 0 0 0 0 0 0 0 0 0 0 0 0 0 528 0.0026 
1472 8 0.00680162 0.0285838 -0.0349307 0 0 0 -0.378303 -1.56107 -1.46884 0 -0.000148473 0 0 0 0 0 0 0 0 0 0 0 0 0 0 0 0 0 441 0.00193333 
7269 3 0.00795334 0.0319317 -0.0349843 0 0 0 -2.80523 -2.73926 -0.246182 0 -4.17556e-05 0 0 0 0 0 0 0 0 0 0 0 0 0 0 0 0 0 27 0.00126667 
2125 3 0.00235298 0.0348951 -0.0349329 0 0 0 0.0121254 -0.785305 -0.174677 0 -4.17556e-05 0 0 0 0 0 0 0 0 0 0 0 0 0 0 0 0 0 141 0.00126667 
2708 1 0.00593649 0.0341743 -0.0362277 0 0 0 -3.19182 -0.329862 -0.695956 0 -2.0546e-05 0 0 0 0 0 0 0 0 0 0 0 0 0 0 0 0 0 103 0.001 
3259 1 0.0143866 0.0357673 -0.0362842 0 0 0 -1.50159 -4.08401 -1.99912 0 -2.0546e-05 0 0 0 0 0 0 0 0 0 0 0 0 0 0 0 0 0 112 0.001 
2897 1 0.0033121 0.0376748 -0.034257 0 0 0 0.071026 -0.670144 -0.297876 0 -2.0546e-05 0 0 0 0 0 0 0 0 0 0 0 0 0 0 0 0 0 111 0.001 
435 3 0.0102055 0.0410447 -0.0355742 0 0 0 -0.193864 -1.76411 -1.7834 0 -4.17556e-05 0 0 0 0 0 0 0 0 0 0 0 0 0 0 0 0 0 226 0.00126667 
5544 2 0.00722058 0.0452202 -0.0359457 0 0 0 0.94771 -0.718001 0.0918205 0 -2.99089e-05 0 0 0 0 0 0 0 0 0 0 0 0 0 0 0 0 0 59 0.00113333 
1640 1 0.00748145 0.0446 -0.0335883 0 0 0 0.356696 -1.50034 -0.653798 0 -2.0546e-05 0 0 0 0 0 0 0 0 0 0 0 0 0 0 0 0 0 110 0.001 
6430 3 0.00528824 0.0465521 -0.0340124 0 0 0 0.0104577 -0.986378 -0.133456 0 -4.17556e-05 0 0 0 0 0 0 0 0 0 0 0 0 0 0 0 0 0 62 0.00126667 
336 3 0.0114178 0.0520336 -0.0355037 0 0 0 7.60437e-17 -4.49963e-16 2.11812e-14 -1.11022e-16 1.38778e-17 0 0 0 1 0 0 0 0 0 0 0 0 0 0 0 0 0 383 0.00126667 
1002 3 0.0165333 0.0511171 -0.0355 0 0 0 1.80036e-78 -1.33524e-19 3.35785e-12 -5.0819e-79 0 0 0 0 0 0 0 0 0 0 0 0 0 0 0 0 0 0 44 0.00126667 
7867 4 0.00244619 0.0538493 -0.0335284 0 0 0 -0.0342426 -0.246672 0.0267173 -0.0048556 -0.0103354 -0.00196377 0 0 0 0 0 0 0 0 0 0 0 0 0 0 0 0 0 0.0014 
32 1 0.00954285 0.0522303 -0.0354924 0 0 0 1.66876e-15 3.34768e-16 2.48163e-14 0 -1.38778e-17 0 0 0 1 0 0 0 0 0 0 0 0 0 0 0 0 0 386 0.001 
810 1 0.010072 0.0540089 -0.0355024 0 0 0 -2.04853e-16 2.32585e-16 2.4971e-14 -3.46945e-18 1.38778e-17 0 0 0 0 0 0 0 0 0 0 0 0 0 0 0 0 0 3 0.001 
3333 4 0.0180217 0.0538203 -0.0336244 0 0 0 -0.430733 -2.14128 0.227623 -0.00810464 -0.00769788 0.0344156 0 0 0 0 0 0 0 0 0 0 0 0 0 0 0 0 184 0.0014 
4607 1 0.00592487 0.0557407 -0.0355 0 0 0 -5.88167e-77 1.68478e-19 5.07131e-12 1.80643e-76 1.69407e-21 -4.44089e-16 0 0 0 0 0 0 0 0 0 0 0 0 0 0 0 0 0 0.001 
479 2 0.0114265 0.0580259 -0.0355 0 0 0 4.75263e-223 -1.67121e-20 -1.83691e-12 -2.26463e-223 0 8.88178e-16 0 0 0 0 0 0 0 0 0 0 0 0 0 0 0 0 11 0.00113333 
2052 2 0.0140603 0.0579251 -0.0355 0 0 0 2.07926e-103 7.68272e-20 -5.51957e-12 -1.95983e-103 0 0 0 0 0 0 0 0 0 0 0 0 0 0 0 0 0 0 1 0.00113333 
5103 1 0.00250227 0.0602351 -0.0336094 0 0 0 -0.00878367 -0.488835 -0.193492 0 -2.0546e-05 0 0 0 0 0 0 0 0 0 0 0 0 0 0 0 0 0 83 0.001 
256 2 0.00747914 0.0588799 -0.0355 0 0 0 -3.66803e-124 8.56253e-20 3.68648e-12 -1.74281e-124 0 8.88178e-16 0 0 0 0 0 0 0 0 0 0 0 0 0 0 0 0 0 0.00113333 
5751 2 0.00214941 0.0626773 -0.0337644 0 0 0 -1.31601 -0.552291 0.0949832 0 -2.99089e-05 0 0 0 0 0 0 0 0 0 0 0 0 0 0 0 0 0 106 0.00113333 
4382 1 0.00785127 0.0639271 -0.0335024 0 0 0 1.52164 -0.00570648 0.685219 0 -2.0546e-05 0 0 0 0 0 0 0 0 0 0 0 0 0 0 0 0 0 62 0.001 
1083 2 0.00841785 0.0629568 -0.0355 0 0 0 5.03321e-49 1.61761e-19 6.43568e-12 6.27829e-49 0 -8.88178e-16 0 0 0 0 0 0 0 0 0 0 0 0 0 0 0 0 6 0.00113333 
2940 1 0.0112133 0.0627704 -0.0355 0 0 0 6.37626e-19 -6.43213e-19 5.07129e-12 -1.20067e-19 1.16891e-19 -4.44089e-16 0 0 0 0 0 0 0 0 0 0 0 0 0 0 0 0 33 0.001 
1025 1 0.00128286 0.066581 -0.0355 0 0 0 -3.49596e-302 4.50435e-20 6.08171e-12 1.81914e-307 1.69407e-21 4.44089e-16 0 0 0 0 0 0 0 0 0 0 0 0 0 0 0 0 1 0.001 
5577 2 0.00271923 0.068326 -0.0338716 0 0 0 0.052877 0.1052 -0.132472 0.00026842 0.00360078 0.00712005 0 1 0 0 0 0 0 0 0 0 0 0 0 0 0 0 91 0.00113333 
1892 2 0.00467886 0.0676706 -0.0355017 0 0 0 -2.88971e-16 -2.26875e-15 1.37549e-12 0 0 0 0 0 0 0 0 0 0 0 0 0 0 0 0 0 0 0 10 0.00113333 
6035 2 0.00637431 0.0668669 -0.0354983 0 0 0 5.58278e-16 2.36107e-15 1.37371e-12 0 2.77556e-17 0 0 0 0 0 0 0 0 0 0 0 0 0 0 0 0 0 1 0.00113333 
201 5 0.0101339 0.0679676 -0.0355 0 0 0 -4.3537e-43 -1.06263e-19 6.42087e-12 -3.78034e-43 0 0 0 0 0 0 0 0 0 0 0 0 0 0 0 0 0 0 11 0.00153333 
495 6 0.015728 0.0658353 -0.0355 0 0 0 2.75131e-25 2.37951e-19 6.68664e-13 7.28432e-26 0 0 0 0 0 0 0 0 0 0 0 0 0 0 0 0 0 0 49 0.00166667 
6393 1 0.0182901 0.0681324 -0.0355 0 0 0 1.09001e-110 -5.66509e-20 -2.7619e-15 3.34766e-112 0 0 0 0 0 0 0 0 0 0 0 0 0 0 0 0 0 0 0 0.001 
250 3 0.0022528 0.071041 -0.0355 0 0 0 3.06498e-31 -2.00175e-19 -3.35803e-12 -7.91882e-32 -3.38813e-21 0 0 0 0 0 0 0 0 0 0 0 0 0 0 0 0 0 45 0.00126667 
1250 1 0.0158705 0.0707468 -0.0355 0 0 0 1.03579e-38 -1.72782e-19 2.02926e-12 -3.09908e-39 0 0 0 0 0 0 0 0 0 0 0 0 0 0 0 0 0 0 44 0.001 
299 1 0.00202776 0.0723079 -0.0335998 0 0 0 0.0185977 0.0172322 0.00340045 0 -2.0546e-05 0 0 0 0 0 0 0 0 0 0 0 0 0 0 0 0 0 146 0.001 
31 5 0.00831452 0.0721225 -0.0355 0 0 0 1.69607e-88 3.5467e-19 -6.42071e-12 -4.57463e-89 0 0 0 0 0 0 0 0 0 0 0 0 0 0 0 0 0 0 14 0.00153333 
838 1 0.0132441 0.0726228 -0.0355 0 0 0 5.17151e-83 -1.79814e-19 3.03955e-12 -1.49647e-84 0 0 0 0 0 0 0 0 0 0 0 0 0 0 0 0 0 0 23 0.001 
4793 5 0.0155864 0.0739033 -0.0334505 0 0 0 -0.0184824 -0.544096 0.0485929 0 -7.40691e-05 0 0 0 0 0 0 0 0 0 0 0 0 0 0 0 0 0 215 0.00153333 
5775 5 0.00729002 0.0775586 -0.0333858 0 0 0 0.244114 -0.218022 0.0352904 0 -7.40691e-05 0 0 0 0 0 0 0 0 0 0 0 0 0 0 0 0 0 113 0.00153333 
4427 1 0.0170605 0.0778465 -0.0339116 0 0 0 0.0237943 -0.216462 0.143839 0 -2.0546e-05 0 0 0 0 0 0 0 0 0 0 0 0 0 0 0 0 0 119 0.001 
4441 4 0.00297982 0.0795139 -0.0334878 0 0 0 0.0594497 -0.00856012 0.0811504 0 -5.63783e-05 0 0 0 0 0 0 0 0 0 0 0 0 0 0 0 0 0 135 0.0014 
7891 3 0.00687829 0.0804737 -0.0336991 0 0 0 -0.123777 -0.216049 -0.0393685 0 -4.17556e-05 0 0 0 0 0 0 0 0 0 0 0 0 0 0 0 0 0 0 0.00126667 
2919 2 0.0101071 0.0794493 -0.0337808 0 0 0 -0.573498 -0.0680589 0.0386657 0 -2.99089e-05 0 0 0 0 0 0 0 0 0 0 0 0 0 0 0 0 0 149 0.00113333 
5455 3 0.0161632 0.0806046 -0.0336567 0 0 0 0.0194745 -0.100432 0.0995249 0 -4.17556e-05 0 0 0 0 0 0 0 0 0 0 0 0 0 0 0 0 0 75 0.00126667 
1875 1 0.00233986 0.0818903 -0.0334892 0 0 0 0.0591909 0.0627069 0.0587694 0 -2.0546e-05 0 0 0 0 0 0 0 0 0 0 0 0 0 0 0 0 0 92 0.001 
5385 3 0.00226766 0.0841952 -0.0337093 0 0 0 0.0186176 0.076008 0.018372 0 -4.17556e-05 0 0 0 0 0 0 0 0 0 0 0 0 0 0 0 0 0 135 0.00126667 
4701 2 0.00461387 0.0817707 -0.0337627 0 0 0 0.0076384 0.106058 -0.0013178 0 -2.99089e-05 0 0 0 0 0 0 0 0 0 0 0 0 0 0 0 0 0 112 0.00113333 
6090 2 0.00505148 0.083986 -0.0334821 0 0 0 -0.186052 0.234049 -0.0991147 0 -2.99089e-05 0 0 0 0 0 0 0 0 0 0 0 0 0 0 0 0 0 68 0.00113333 
1383 1 0.00864928 0.0819952 -0.0337436 0 0 0 -0.00563985 -0.137542 -0.5392 0 -2.0546e-05 0 0 0 0 0 0 0 0 0 0 0 0 0 0 0 0 0 133 0.001 
7460 2 0.0134137 0.0828393 -0.0338706 0 0 0 0.178842 0.016002 -0.0315934 -0.00189931 0.000649645 0.00365257 0 1 0 0 0 0 0 0 0 0 0 0 0 0 0 0 16 0.00113333 
4419 1 0.0177183 0.0840944 -0.0336628 0 0 0 -0.380062 -0.139683 -0.0908885 0.0011899 -0.00126165 0.0014099 1 0 0 0 0 0 0 0 0 0 0 0 0 0 0 0 95 0.001 
7684 5 0.00428487 0.0865928 -0.0334666 0 0 0 -0.0121044 -0.122723 0.0433766 -0.00734716 -0.00199186 -0.000836201 0 0 0 0 3 0 0 0 0 0 0 0 0 0 0 0 6 0.00153333 
4377 1 0.00946395 0.0851003 -0.0339972 0 0 0 0.079826 0.0327422 0.0147017 0 -2.0546e-05 0 0 0 0 0 0 0 0 0 0 0 0 0 0 0 0 0 74 0.001 
3294 3 0.0174654 0.0853894 -0.0354996 0 0 0 -0.000389087 0.000124492 -0.000120555 1.7131e-05 -3.09339e-05 1.88596e-06 1 0 1 0 0 0 0 0 0 0 0 0 0 0 0 0 138 0.00126667 
5614 1 0.0154735 0.0876184 -0.0339428 0 0 0 0.0254929 0.117336 0.0321887 0 -2.0546e-05 0 0 0 0 0 0 0 0 0 0 0 0 0 0 0 0 0 50 0.001 
975 4 0.0178942 0.0873443 -0.0336014 0 0 0 -0.140247 -0.0707407 -0.00110257 -5.32355e-05 0.000293066 0.000706953 0 0 0 0 0 0 0 0 0 0 0 0 0 0 0 0 223 0.0014 
3323 2 0.00215814 0.0882406 -0.0338626 0 0 0 0.0388568 0.0666144 0.016981 0 -2.99089e-05 0 0 0 0 0 0 0 0 0 0 0 0 0 0 0 0 0 173 0.00113333 
3048 1 0.00206908 0.0903841 -0.0339921 0 0 0 0.0296193 -0.0770947 0.0133546 0 -2.0546e-05 0 0 0 0 0 0 0 0 0 0 0 0 0 0 0 0 0 75 0.001 
609 4 0.00434952 0.0895314 -0.0336057 0 0 0 0.00682342 0.0121576 0.0320501 -0.00071625 5.82503e-05 1.15754e-05 0 0 0 2 0 0 0 0 0 0 0 0 0 0 0 0 238 0.0014 
6006 3 0.00684261 0.090453 -0.0336005 0 0 0 0.00346907 -0.114962 -0.0190671 0.000248465 -0.000705258 -0.00134702 0 0 2 1 0 0 0 0 0 0 0 0 0 0 0 0 84 0.00126667 
1654 1 0.00895469 0.089752 -0.0340047 0 0 0 0.0431855 0.0336839 -0.0148828 0.000197869 -0.000869269 -5.95677e-05 1 0 1 0 0 0 0 0 0 0 0 0 0 0 0 0 142 0.001 
2017 1 0.0105393 0.0910271 -0.0339835 0 0 0 -0.259606 -0.145879 -0.00757853 -4.76265e-05 -0.000442167 -5.37916e-05 1 0 0 0 0 0 0 0 0 0 0 0 0 0 0 0 118 0.001 
866 1 0.0147496 0.0888554 -0.0355 0 0 0 -5.16243e-39 6.6524e-20 -1.01868e-12 3.63376e-39 0 4.44089e-16 0 0 0 0 0 0 0 0 0 0 0 0 0 0 0 0 15 0.001 
4162 5 0.0132304 0.089632 -0.0334066 0 0 0 -0.0690378 -0.0779218 -0.0133035 0.00179477 0.000394043 0.000753394 0 0 0 0 2 0 0 0 0 0 0 0 0 0 0 0 192 0.00153333 
1942 1 0.0176821 0.0906783 -0.0340042 0 0 0 -0.0561315 -0.0549109 0.018681 0.00159807 0.000224417 0.000454608 2 0 0 0 0 0 0 0 0 0 0 0 0 0 0 0 108 0.001 
4372 4 0.00415105 0.0923217 -0.033563 0 0 0 0.0589996 0.020487 0.0491067 -0.000298464 0.000401842 0.000138726 0 0 0 1 0 0 0 0 0 0 0 0 0 0 0 0 156 0.0014 
940 2 0.00213313 0.0938236 -0.0338589 0 0 0 0.00609787 -0.0340975 0.0190221 8.42173e-06 9.95883e-05 -1.67696e-05 0 1 0 1 0 0 0 0 0 0 0 0 0 0 0 0 166 0.00113333 
2224 4 0.00670801 0.0934602 -0.0335988 0 0 0 0.0861837 -0.0252016 0.0128669 2.1999e-05 -4.25746e-05 1.19141e-05 0 0 0 0 0 0 0 0 0 0 0 0 0 0 0 0 130 0.0014 
4810 1 0.00866823 0.0917294 -0.0339717 0 0 0 -0.130084 0.0211389 0.0230208 -0.00203081 -0.000226511 4.56932e-05 1 0 1 0 0 0 0 0 0 0 0 0 0 0 0 0 108 0.001 
7206 2 0.0141332 0.0942808 -0.0338671 0 0 0 -0.248391 -0.0381989 -0.0771015 0.00654745 0.00333452 0.000490194 0 2 0 0 0 0 0 0 0 0 0 0 0 0 0 0 33 0.00113333 
7044 4 0.0124339 0.0924406 -0.0335978 0 0 0 -0.196595 -0.164467 -0.00684028 0.00012275 0.000435571 -0.000853359 1 1 0 1 1 0 0 0 0 0 0 0 0 0 0 0 69 0.0014 
7673 3 0.0154401 0.0913758 -0.0336654 0 0 0 -0.123917 0.0166178 -0.00879176 0 -4.17556e-05 0 0 0 0 0 0 0 0 0 0 0 0 0 0 0 0 0 2 0.00126667 
7814 2 0.0162789 0.0936326 -0.0338764 0 0 0 -0.209254 0.0345397 0.00801541 0.00111711 -0.00212205 0.00113815 0 3 0 0 0 0 0 0 0 0 0 0 0 0 0 0 9 0.00113333 
6420 3 0.00226866 0.0962161 -0.0337333 0 0 0 0.0148094 -0.0119911 0.0111754 -3.91709e-05 -0.000100434 -8.84183e-05 0 1 0 0 0 0 0 0 0 0 0 0 0 0 0 0 54 0.00126667 
5500 3 0.00458382 0.0951059 -0.0337216 0 0 0 0.0132932 -0.0396946 0.0174047 0 -4.17556e-05 0 0 0 0 0 0 0 0 0 0 0 0 0 0 0 0 0 127 0.00126667 
5630 3 0.00456504 0.0977374 -0.0337346 0 0 0 -0.0257428 -0.060057 -0.00228888 -0.000815617 0.00052719 -0.000111529 0 0 1 0 0 0 0 0 0 0 0 0 0 0 0 0 99 0.00126667 
3676 1 0.0121237 0.0949252 -0.0340025 0 0 0 -0.224192 -0.0136731 -0.031697 0.000177697 0.000371601 -0.000220823 2 1 0 0 0 0 0 0 0 0 0 0 0 0 0 0 82 0.001 