ITEM: TIMESTEP
20000000
ITEM: NUMBER OF ATOMS
8825
ITEM: BOX BOUNDS ff ff ff
-0.01 0.45
-0.15 0.15
-0.08 0.1
ITEM: ATOMS id type x y z ix iy iz vx vy vz fx fy fz c_cc_1 c_cc_2 c_cc_3 c_cc_4 c_cc_5 c_cc_6 c_cc_7 c_cc_8 c_cc_9 c_cc_10 c_cc_11 c_cc_12 c_cc_13 c_cc_14 c_cc_15 c_cc_16 f_fppacc radius 
9767 7 0.0145795 -0.039041 -0.0417472 0 0 0 0.482987 -3.02407 2.89732 0 -4.10998e-05 0 0 0 0 0 0 0 0 0 0 0 0 0 0 0 0 0 1 0.00126 
4979 6 0.00334821 -0.0428836 -0.0396754 0 0 0 0.221346 -3.28257 4.01323 0 -4.10998e-05 0 0 0 0 0 0 0 0 0 0 0 0 0 0 0 0 0 259 0.00126 
1248 9 0.016314 -0.0469804 -0.0386241 0 0 0 4.14149e-07 2.7511e-12 2.50794e-12 -2.16791e-17 0 0 0 0 0 0 0 0 0 0 0 0 0 0 0 0 0 0 9 0.00126 
9737 6 0.0094361 -0.0469136 -0.0330597 0 0 0 0.823739 -3.63334 5.41939 0 -4.10998e-05 0 0 0 0 0 0 0 0 0 0 0 0 0 0 0 0 0 4 0.00126 
309 4 0.0142228 -0.0541091 -0.0171226 0 0 0 3.85964 -2.38338 10.6045 0 -4.10998e-05 0 0 0 0 0 0 0 0 0 0 0 0 0 0 0 0 0 268 0.00126 
4068 3 0.00467611 -0.0572231 -0.0090631 0 0 0 0.315249 0.103057 6.21436 0 -4.10998e-05 0 0 0 0 0 0 0 0 0 0 0 0 0 0 0 0 0 251 0.00126 
496 1 0.0119132 -0.0582983 -0.00521758 0 0 0 -1.18 -2.02754 14.7689 0 -4.10998e-05 0 0 0 0 0 0 0 0 0 0 0 0 0 0 0 0 0 282 0.00126 
4100 6 0.00471212 -0.0576733 0.00965114 0 0 0 1.26284 2.77036 12.2009 0 -4.10998e-05 0 0 0 0 0 0 0 0 0 0 0 0 0 0 0 0 0 209 0.00126 
4721 7 0.00810755 -0.0382124 -0.0313642 0 0 0 0.272364 -3.41465 8.84471 0 -4.10998e-05 0 0 0 0 0 0 0 0 0 0 0 0 0 0 0 0 0 197 0.00126 
1274 3 0.00314931 -0.0556083 0.0165383 0 0 0 0.427042 2.16783 10.469 0 -4.10998e-05 0 0 0 0 0 0 0 0 0 0 0 0 0 0 0 0 0 242 0.00126 
9726 3 0.00612799 -0.0402688 0.0126995 0 0 0 -0.0500097 -0.00627321 3.64614 0 -4.10998e-05 0 0 0 0 0 0 0 0 0 0 0 0 0 0 0 0 0 1 0.00126 
4380 5 0.00279611 -0.0545856 0.020498 0 0 0 -3.9421 4.48031 15.0688 0 -4.10998e-05 0 0 0 0 0 0 0 0 0 0 0 0 0 0 0 0 0 226 0.00126 
5725 1 0.00423157 -0.0509756 0.0182497 0 0 0 -3.83602 2.25344 11.0081 0 -4.10998e-05 0 0 0 0 0 0 0 0 0 0 0 0 0 0 0 0 0 173 0.00126 
9929 7 0.00984178 -0.0553425 0.0191554 0 0 0 1.48743 4.34562 11.2311 -0.00267647 0.0949041 -0.0411891 0 0 0 0 0 0 0 0 0 0 0 0 0 0 0 0 0 0.00126 
3517 6 0.00331176 -0.0587942 0.0162608 0 0 0 -2.56837e-23 7.54531e-15 -1.30535e-15 2.14113e-24 0 0 0 0 0 0 0 0 0 0 0 0 0 0 0 0 0 0 72 0.00126 
7053 7 0.00643985 -0.058715 0.0164069 0 0 0 0.0158257 1.73071e-12 -1.50857e-13 8.4598e-15 0 8.32667e-17 0 0 0 0 0 0 0 0 0 0 0 0 0 0 0 0 72 0.00126 
1195 6 0.00860153 -0.0533249 0.0230458 0 0 0 2.58997 4.57861 8.36452 0 -4.10998e-05 0 0 0 0 0 0 0 0 0 0 0 0 0 0 0 0 0 297 0.00126 
9127 2 0.01639 -0.0407291 0.030908 0 0 0 4.04926 8.36216 11.4311 0 -4.10998e-05 0 0 0 0 0 0 0 0 0 0 0 0 0 0 0 0 0 11 0.00126 
5917 13 0.00318944 -0.0548013 0.0268062 0 0 0 -5.57006e-08 -1.14472e-14 4.93898e-15 1.32005e-09 0 0 0 0 0 0 0 0 0 0 0 0 0 0 0 0 0 0 133 0.00126 
4947 1 0.007536 -0.0500133 0.029137 0 0 0 0.366146 0.815874 3.49029 0 -4.10998e-05 0 0 0 0 0 0 0 0 0 0 0 0 0 0 0 0 0 200 0.00126 
7974 3 0.00554864 -0.043405 0.0318082 0 0 0 1.48719 5.6321 7.83036 0 -4.10998e-05 0 0 0 0 0 0 0 0 0 0 0 0 0 0 0 0 0 101 0.00126 
2315 10 0.0136589 -0.0403466 0.0317422 0 0 0 2.1945 8.79774 7.87994 0 -4.10998e-05 0 0 0 0 0 0 0 0 0 0 0 0 0 0 0 0 0 268 0.00126 
9209 8 0.00287603 -0.0476807 0.033713 0 0 0 0.57996 5.74531 8.49119 0 -4.10998e-05 0 0 0 0 0 0 0 0 0 0 0 0 0 0 0 0 0 8 0.00126 
726 2 0.009045 -0.0440878 0.038085 0 0 0 -1.88706 8.70188 7.20574 0 -4.10998e-05 0 0 0 0 0 0 0 0 0 0 0 0 0 0 0 0 0 280 0.00126 
934 4 0.00295686 -0.048926 0.0364497 0 0 0 -4.61321e-16 8.94013e-15 -5.05435e-15 -4.96829e-17 0 0 0 0 0 0 0 0 0 0 0 0 0 0 0 0 0 0 201 0.00126 
9860 5 0.00695555 -0.0423869 0.0402652 0 0 0 0.038309 6.85702 6.81748 0 -4.10998e-05 0 0 0 0 0 0 0 0 0 0 0 0 0 0 0 0 0 0 0.00126 
9733 7 0.00417959 -0.0400283 0.042543 0 0 0 -0.0289608 8.64289 8.1049 0 -4.10998e-05 0 0 0 0 0 0 0 0 0 0 0 0 0 0 0 0 0 0 0.00126 
9607 3 0.0033592 -0.0526603 0.0163759 0 0 0 -0.589781 -3.50538 15.7315 0 -4.10998e-05 0 0 0 0 0 0 0 0 0 0 0 0 0 0 0 0 0 1 0.00126 
9941 1 0.0101397 -0.0505769 0.0204754 0 0 0 -10.1318 21.0875 48.9517 0 -4.10998e-05 0 0 0 0 0 0 0 0 0 0 0 0 0 0 0 0 0 0 0.00126 
4830 3 0.0115932 -0.0560994 0.0136018 0 0 0 -2.8524 8.31269 21.8388 0 -4.10998e-05 0 0 0 0 0 0 0 0 0 0 0 0 0 0 0 0 0 212 0.00126 
9841 5 0.017718 -0.0564737 0.014976 0 0 0 -1.35297 9.55345 39.1488 0 -4.10998e-05 0 0 0 0 0 0 0 0 0 0 0 0 0 0 0 0 0 0 0.00126 
8162 1 0.0130111 -0.0533132 0.0119233 0 0 0 -2.41409 18.9641 22.8681 0 -4.10998e-05 0 0 0 0 0 0 0 0 0 0 0 0 0 0 0 0 0 70 0.00126 
1462 4 0.00798405 -0.0572841 0.0105085 0 0 0 3.0997 2.39011 9.4469 0 -4.10998e-05 0 0 0 0 0 0 0 0 0 0 0 0 0 0 0 0 0 143 0.00126 
1679 10 0.0154128 -0.0140089 -0.0591646 0 0 0 5.97325e-07 1.37041e-13 4.81648e-13 -1.25878e-19 0 0 0 0 0 0 0 0 0 0 0 0 0 0 0 0 0 0 2 0.00126 
1314 1 0.00967 -0.00946505 -0.0601229 0 0 0 -1.10083e-06 -4.78789e-13 -5.16695e-12 -5.67238e-18 2.77556e-17 2.22045e-16 0 0 0 0 0 0 0 0 0 0 0 0 0 0 0 0 0 0.00126 
3704 2 0.014264 -0.00911901 -0.060155 0 0 0 -1.96889e-07 2.7541e-13 2.97215e-12 2.20003e-20 0 0 0 0 0 0 0 0 0 0 0 0 0 0 0 0 0 0 178 0.00126 
2060 1 0.0166297 -0.0195778 -0.0575802 0 0 0 1.42367e-06 4.43228e-13 1.55779e-12 -8.26418e-20 -5.55112e-17 -2.22045e-16 0 0 0 0 0 0 0 0 0 0 0 0 0 0 0 0 214 0.00126 
289 8 0.00121276 -0.022077 -0.0568641 0 0 0 1.59351e-16 3.5539e-16 -3.96684e-16 6.93889e-18 0 0 0 0 0 0 0 0 0 0 0 0 0 0 0 0 0 0 164 0.00126 
1652 2 0.0136233 -0.0156482 -0.0556851 0 0 0 1.66807 -3.82673 1.7075 0 -4.10998e-05 0 0 0 0 0 0 0 0 0 0 0 0 0 0 0 0 0 270 0.00126 
7653 12 0.00822309 -0.00877028 -0.0575194 0 0 0 3.27401 -1.51322 -3.08854 0 -4.10998e-05 0 0 0 0 0 0 0 0 0 0 0 0 0 0 0 0 0 151 0.00126 
385 3 0.0174879 -0.0248053 -0.0555017 0 0 0 4.57039e-07 6.71609e-14 1.34881e-13 -3.36945e-19 0 0 0 0 0 0 0 0 0 0 0 0 0 0 0 0 0 0 1 0.00126 
9751 9 0.00258093 -0.0148312 -0.0562995 0 0 0 0.881045 -7.73261 -2.44525 0 -4.10998e-05 0 0 0 0 0 0 0 0 0 0 0 0 0 0 0 0 0 3 0.00126 
6624 10 0.0135999 -0.0303077 -0.0527619 0 0 0 -9.80182e-07 -1.04629e-12 -2.10123e-12 -1.10235e-17 0 0 0 0 0 0 0 0 0 0 0 0 0 0 0 0 0 0 158 0.00126 
2570 2 0.00760855 -0.033704 -0.0475471 0 0 0 -0.515896 -15.7791 9.59292 0 -4.10998e-05 0 0 0 0 0 0 0 0 0 0 0 0 0 0 0 0 0 222 0.00126 
6473 2 0.0102372 -0.0238599 -0.0496687 0 0 0 -4.19286 -11.0925 2.78515 0 -4.10998e-05 0 0 0 0 0 0 0 0 0 0 0 0 0 0 0 0 0 140 0.00126 
9791 6 0.017952 -0.0234249 -0.0487356 0 0 0 5.65749 -6.81177 4.60564 0.0385869 0.40578 -0.24794 0 0 0 0 0 0 0 0 0 0 0 0 0 0 0 0 2 0.00126 
3750 6 0.00522819 -0.0319568 -0.0481342 0 0 0 1.06822 -3.93083 3.17353 0 -4.10998e-05 0 0 0 0 0 0 0 0 0 0 0 0 0 0 0 0 0 232 0.00126 
3862 6 0.00845267 -0.0366436 -0.0455316 0 0 0 1.43634 -3.59506 2.99821 0 -4.10998e-05 0 0 0 0 0 0 0 0 0 0 0 0 0 0 0 0 0 200 0.00126 
1513 6 0.0177707 -0.0254184 -0.0476419 0 0 0 1.05296 -9.55077 0.882339 -0.0385869 -0.405862 0.24794 0 0 0 0 0 0 0 0 0 0 0 0 0 0 0 0 245 0.00126 
2528 3 0.0116837 -0.0334945 -0.0421016 0 0 0 0.705301 -6.91652 0.163437 0 -4.10998e-05 0 0 0 0 0 0 0 0 0 0 0 0 0 0 0 0 0 218 0.00126 
954 5 0.0131397 -0.0311115 -0.0183988 0 0 0 2.35101 3.03498 3.41411 0 -4.10998e-05 0 0 0 0 0 0 0 0 0 0 0 0 0 0 0 0 0 221 0.00126 
3128 2 0.00619713 -0.0334329 0.00626708 0 0 0 -0.221854 0.222229 1.36293 0 -4.10998e-05 0 0 0 0 0 0 0 0 0 0 0 0 0 0 0 0 0 138 0.00126 
959 9 0.00335274 -0.000592216 -0.0558441 0 0 0 1.54097 -7.77265 -3.57759 0 -4.10998e-05 0 0 0 0 0 0 0 0 0 0 0 0 0 0 0 0 0 248 0.00126 
488 6 0.0150216 -0.0339795 0.0504533 0 0 0 -5.50441e-07 2.97787e-12 -3.94331e-12 1.11616e-17 0 0 0 0 0 0 0 0 0 0 0 0 0 0 0 0 0 0 57 0.00126 
7451 9 0.00347367 -0.0158027 0.0521051 0 0 0 0.608728 5.08939 1.31628 0 -4.10998e-05 0 0 0 0 0 0 0 0 0 0 0 0 0 0 0 0 0 141 0.00126 
8509 3 0.0140269 -0.0142201 0.0501743 0 0 0 -1.46324 3.78254 -2.32789 0 -4.10998e-05 0 0 0 0 0 0 0 0 0 0 0 0 0 0 0 0 0 58 0.00126 
7919 3 0.0162125 -0.0291768 0.053325 0 0 0 1.03053e-06 -1.08699e-12 2.18297e-12 2.1684e-17 0 0 0 0 0 0 0 0 0 0 0 0 0 0 0 0 0 0 0 0.00126 
66 6 0.0120854 -0.0130055 0.0594501 0 0 0 -2.86698e-06 -4.94358e-13 1.73748e-12 -7.76833e-19 -5.55112e-17 2.22045e-16 0 0 0 0 0 0 0 0 0 0 0 0 0 0 0 0 2 0.00126 
2240 2 0.0161682 -0.0135215 0.0593033 0 0 0 -1.90869e-06 3.92689e-13 -1.38016e-12 -2.22076e-17 -1.11022e-16 4.44089e-16 0 0 0 0 0 0 0 0 0 0 0 0 0 0 0 0 1 0.00126 
1091 6 0.00687908 0.0106359 -0.0600401 0 0 0 9.10229e-13 -2.97101e-13 -1.60439e-13 6.99024e-14 1.86295e-13 1.19904e-14 0 0 0 0 0 0 0 0 0 0 0 0 0 0 0 0 2 0.00126 
1187 10 0.016455 0.0116648 -0.0597913 0 0 0 -0.00119326 5.6761e-13 -1.1114e-12 -4.49854e-15 0 0 0 0 0 0 0 0 0 0 0 0 0 0 0 0 0 0 249 0.00126 
2102 11 0.0109524 0.0128467 -0.0594953 0 0 0 -5.785e-06 9.42644e-13 -3.31304e-12 1.71762e-18 5.55112e-17 -2.22045e-16 0 0 0 0 0 0 0 0 0 0 0 0 0 0 0 0 0 0.00126 
1665 3 0.014123 0.013441 -0.0593262 0 0 0 -1.54425e-06 1.59056e-13 -5.59038e-13 -6.02461e-20 0 0 0 0 0 0 0 0 0 0 0 0 0 0 0 0 0 0 57 0.00126 
3391 5 0.0180018 0.0137776 -0.0592304 0 0 0 4.44363e-07 -2.672e-13 9.39106e-13 2.52838e-19 0 0 0 0 0 0 0 0 0 0 0 0 0 0 0 0 0 0 63 0.00126 
5366 7 0.0030067 0.0139944 -0.0549518 0 0 0 0.986696 1.32501 1.61884 0 -4.10998e-05 0 0 0 0 0 0 0 0 0 0 0 0 0 0 0 0 0 135 0.00126 
8453 6 0.00910101 0.0217812 -0.0569883 0 0 0 -0.156373 1.37084e-12 -2.77329e-12 -4.06859e-19 1.11022e-16 0 0 0 0 0 0 0 0 0 0 0 0 0 0 0 0 0 4 0.00126 
2090 5 0.00756234 0.0236283 -0.0560878 0 0 0 4.596e-07 -6.06811e-13 1.21865e-12 -5.57903e-18 0 0 0 0 0 0 0 0 0 0 0 0 0 0 0 0 0 0 2 0.00126 
3367 4 0.00759735 0.00570946 -0.0514783 0 0 0 4.34855 -2.49188 6.06243 0 -4.10998e-05 0 0 0 0 0 0 0 0 0 0 0 0 0 0 0 0 0 264 0.00126 
3061 5 0.0175799 0.00953539 -0.0555579 0 0 0 0.0990326 -1.95941 0.00413647 0 -4.10998e-05 0 0 0 0 0 0 0 0 0 0 0 0 0 0 0 0 0 258 0.00126 
5130 10 0.0110966 0.00860312 -0.0560512 0 0 0 8.22592 -17.7687 0.98837 0 -4.10998e-05 0 0 0 0 0 0 0 0 0 0 0 0 0 0 0 0 0 213 0.00126 
9913 1 0.00860119 0.0186875 -0.0554128 0 0 0 0.68012 -1.78358 -0.279555 0 -4.10998e-05 0 0 0 0 0 0 0 0 0 0 0 0 0 0 0 0 0 0 0.00126 
4458 5 0.0115731 0.0072199 -0.0581494 0 0 0 -3.76391 -23.8139 0.615612 0.0308152 -0.035642 0.080375 0 0 0 0 0 0 0 0 0 0 0 0 0 0 0 0 229 0.00126 
9794 1 0.0081648 0.0296664 -0.0128623 0 0 0 0.524117 -1.07022 -21.565 0 -4.10998e-05 0 0 0 0 0 0 0 0 0 0 0 0 0 0 0 0 0 1 0.00126 
5542 5 0.0102243 0.0295938 -0.0531173 0 0 0 7.58353e-06 7.34528e-13 -1.47515e-12 4.44296e-18 0 0 0 0 0 0 0 0 0 0 0 0 0 0 0 0 0 0 1 0.00126 
555 9 0.0159694 0.029491 -0.053168 0 0 0 4.40165e-07 7.88884e-09 7.00149e-09 -1.17302e-14 -6.10623e-15 7.77156e-15 0 0 0 0 0 0 0 0 1 0 0 0 0 0 0 0 123 0.00126 
3179 2 0.0184133 0.0292208 -0.0533036 0 0 0 -4.40165e-07 -7.88884e-09 -7.00151e-09 1.14284e-14 -4.88498e-15 5.77316e-15 0 0 0 0 0 0 0 0 1 0 0 0 0 0 0 0 100 0.00126 
192 2 0.0172366 0.000330755 -0.0469692 0 0 0 12.4551 -7.45179 9.06321 0 -4.10998e-05 0 0 0 0 0 0 0 0 0 0 0 0 0 0 0 0 0 279 0.00126 
84 2 0.00253078 0.0324033 -0.0517083 0 0 0 -2.66185e-08 3.65304e-15 -5.08548e-15 -1.11132e-09 0 0 0 0 0 0 0 0 0 0 0 0 0 0 0 0 0 0 0 0.00126 
1594 2 0.00685895 0.0328989 -0.0512693 0 0 0 -1.18119e-06 5.61868e-13 -7.44046e-13 -9.01485e-19 0 0 0 0 0 0 0 0 0 0 0 0 0 0 0 0 0 0 15 0.00126 
5689 5 0.00357794 0.0038361 -0.0521579 0 0 0 0.844058 -2.44329 -3.09295 0 -4.10998e-05 0 0 0 0 0 0 0 0 0 0 0 0 0 0 0 0 0 197 0.00126 
9350 3 0.00939709 0.0332607 -0.050996 0 0 0 -9.44977e-07 9.50823e-13 -1.2591e-12 -4.6433e-19 0 0 0 0 0 0 0 0 0 0 0 0 0 0 0 0 0 0 15 0.00126 
6321 1 0.00358131 0.0306959 -0.0493346 0 0 0 0.151237 -1.31583 -0.840254 0 -4.10998e-05 0 0 0 0 0 0 0 0 0 0 0 0 0 0 0 0 0 216 0.00126 
4371 9 0.00279188 0.0196019 -0.0475219 0 0 0 0.0222306 -1.38414 -1.30012 0 -4.10998e-05 0 0 0 0 0 0 0 0 0 0 0 0 0 0 0 0 0 252 0.00126 
213 7 0.0130594 0.0227655 -0.051222 0 0 0 -3.20446 -15.321 -6.58936 0 -4.10998e-05 0 0 0 0 0 0 0 0 0 0 0 0 0 0 0 0 0 234 0.00126 
6979 4 0.00247194 0.0292331 -0.0456878 0 0 0 0.04837 -1.3059 -1.12131 0 -4.10998e-05 0 0 0 0 0 0 0 0 0 0 0 0 0 0 0 0 0 139 0.00126 
5245 2 0.00260935 0.0341417 -0.0463339 0 0 0 -0.812184 -3.51269 -0.220341 0 -4.10998e-05 0 0 0 0 0 0 0 0 0 0 0 0 0 0 0 0 0 231 0.00126 
2086 3 0.00755724 0.0184963 -0.0428413 0 0 0 0.829209 -2.93465 -1.74829 0 -4.10998e-05 0 0 0 0 0 0 0 0 0 0 0 0 0 0 0 0 0 266 0.00126 
3230 1 0.0153873 0.0228689 -0.0405359 0 0 0 0.492682 -2.99622 -0.616052 0 -4.10998e-05 0 0 0 0 0 0 0 0 0 0 0 0 0 0 0 0 0 230 0.00126 
901 3 0.0043401 0.0263599 -0.0403638 0 0 0 0.0449024 -2.20564 -2.41039 0 -4.10998e-05 0 0 0 0 0 0 0 0 0 0 0 0 0 0 0 0 0 309 0.00126 
6452 6 0.005107 0.0311337 -0.0392782 0 0 0 0.640501 -0.59886 -0.978655 0 -4.10998e-05 0 0 0 0 0 0 0 0 0 0 0 0 0 0 0 0 0 153 0.00126 
5988 8 0.00237313 0.0177377 -0.0371513 0 0 0 -0.098208 -1.22934 -1.95155 0 -4.10998e-05 0 0 0 0 0 0 0 0 0 0 0 0 0 0 0 0 0 19 0.00126 
9855 1 0.00318759 0.0202289 -0.0375129 0 0 0 0.423771 -0.658333 -1.45951 0 -4.10998e-05 0 0 0 0 0 0 0 0 0 0 0 0 0 0 0 0 0 0 0.00126 
9634 2 0.01466 0.0238977 -0.0372762 0 0 0 1.02328 -1.65178 -0.213725 0 -4.10998e-05 0 0 0 0 0 0 0 0 0 0 0 0 0 0 0 0 0 2 0.00126 
4733 6 0.00739341 0.0250732 -0.0365078 0 0 0 1.36735 -3.44328 -1.42635 0 -4.10998e-05 0 0 0 0 0 0 0 0 0 0 0 0 0 0 0 0 0 208 0.00126 
3812 3 0.00339093 0.0360263 -0.0375234 0 0 0 0.329453 -0.563045 -1.34161 0 -4.10998e-05 0 0 0 0 0 0 0 0 0 0 0 0 0 0 0 0 0 236 0.00126 
5927 5 0.0035138 0.00935076 -0.0319997 0 0 0 -0.0663427 -4.5466 -1.54657 0 -4.10998e-05 0 0 0 0 0 0 0 0 0 0 0 0 0 0 0 0 0 177 0.00126 
5445 8 0.0128952 0.0120264 -0.0324714 0 0 0 0.843776 -2.55638 -0.153023 0 -4.10998e-05 0 0 0 0 0 0 0 0 0 0 0 0 0 0 0 0 0 217 0.00126 
6876 5 0.00493264 0.0345195 -0.0310887 0 0 0 0.0228393 -1.9243 1.52893 0 -4.10998e-05 0 0 0 0 0 0 0 0 0 0 0 0 0 0 0 0 0 171 0.00126 
5326 9 0.00808272 0.0153429 -0.0308041 0 0 0 0.222291 -1.54124 -0.13963 0 -4.10998e-05 0 0 0 0 0 0 0 0 0 0 0 0 0 0 0 0 0 193 0.00126 
3715 9 0.00715229 0.0262459 -0.0281311 0 0 0 0.433856 -1.35128 0.196089 0 -4.10998e-05 0 0 0 0 0 0 0 0 0 0 0 0 0 0 0 0 0 226 0.00126 
2214 2 0.0174638 0.0343436 -0.0284157 0 0 0 0.789085 -0.527612 -1.20098 0 -4.10998e-05 0 0 0 0 0 0 0 0 0 0 0 0 0 0 0 0 0 206 0.00126 
7915 2 0.0129487 0.0264791 -0.0279622 0 0 0 0.0950067 -3.31297 -16.9345 0 -4.10998e-05 0 0 0 0 0 0 0 0 0 0 0 0 0 0 0 0 0 79 0.00126 
6146 4 0.017146 0.0113571 0.0422511 0 0 0 0.368791 -1.22382 1.21303 0 -4.10998e-05 0 0 0 0 0 0 0 0 0 0 0 0 0 0 0 0 0 213 0.00126 
9803 4 0.00919346 0.0299307 0.047895 0 0 0 1.93311 0.734854 -1.87977 0 -4.10998e-05 0 0 0 0 0 0 0 0 0 0 0 0 0 0 0 0 0 2 0.00126 
4312 3 0.0130929 0.0246827 0.0484714 0 0 0 -0.541127 4.73287 -3.84033 0 -4.10998e-05 0 0 0 0 0 0 0 0 0 0 0 0 0 0 0 0 0 291 0.00126 
1363 5 0.00807869 0.0315252 0.0521248 0 0 0 2.60974e-17 1.10193e-16 3.64029e-16 0 0 0 0 0 0 0 0 0 0 0 0 0 0 0 0 0 0 0 0 0.00126 
9912 1 0.0100562 0.0251225 0.0528549 0 0 0 1.20343 10.908 -3.09213 0.0622663 -0.0711211 -0.165373 0 0 0 0 0 0 0 0 0 0 0 0 0 0 0 0 0 0.00126 
9799 2 0.00704118 0.0171813 0.0530975 0 0 0 -13.6925 23.4938 -3.02738 0 -4.10998e-05 0 0 0 0 0 0 0 0 0 0 0 0 0 0 0 0 0 0 0.00126 
4932 9 0.0173603 0.027288 0.0516819 0 0 0 -2.30429 14.3211 -8.06569 0 -4.10998e-05 0 0 0 0 0 0 0 0 0 0 0 0 0 0 0 0 0 192 0.00126 
6725 3 0.00819702 0.00444848 0.0582128 0 0 0 0.141422 8.12498 -1.63455 0 -4.10998e-05 0 0 0 0 0 0 0 0 0 0 0 0 0 0 0 0 0 152 0.00126 
8337 5 0.0146643 0.0183978 0.0538806 0 0 0 -1.82889 11.1749 -6.59844 0 -4.10998e-05 0 0 0 0 0 0 0 0 0 0 0 0 0 0 0 0 0 87 0.00126 
4283 6 0.0037682 0.0384402 -0.0360648 0 0 0 0.681985 -0.161032 -0.21135 0 -4.10998e-05 0 0 0 0 0 0 0 0 0 0 0 0 0 0 0 0 0 219 0.00126 
1116 1 0.0142089 0.04823 -0.0372637 0 0 0 7.01355e-16 1.25211e-15 -2.44026e-16 0 0 0 1 0 0 0 0 0 0 0 0 0 0 0 0 0 0 0 80 0.00126 
3451 2 0.0125932 0.0491979 -0.0360977 0 0 0 3.77856e-16 1.49757e-15 -7.364e-16 3.1225e-17 0 0 1 0 0 0 0 0 0 0 0 0 0 0 0 0 0 0 221 0.00126 
1898 2 0.0100201 0.0388786 -0.0345605 0 0 0 0.845206 -1.11626 -0.458639 0 -4.10998e-05 0 0 0 0 0 0 0 0 0 0 0 0 0 0 0 0 0 246 0.00126 
1857 3 0.0159052 0.0510519 -0.0355 0 0 0 2.70629e-302 -2.0106e-19 -4.22398e-12 -3.72184e-307 0 0 0 0 0 0 0 0 0 0 0 0 0 0 0 0 0 0 3 0.00126 
46 7 0.0116618 0.0519953 -0.0355 0 0 0 -7.18195e-187 8.05374e-20 4.22383e-12 -2.24505e-188 0 0 0 0 0 0 0 0 0 0 0 0 0 0 0 0 0 0 40 0.00126 
5426 3 0.0177638 0.0532106 -0.0354917 0 0 0 -0.00311381 -0.00181909 -2.24252e-06 -0.000276137 -0.000116004 -9.4588e-07 0 0 1 0 0 0 0 0 0 0 0 0 0 0 0 0 185 0.00126 
1093 7 0.010025 0.0548255 -0.0354998 0 0 0 -6.74478e-06 -0.000760311 -4.4102e-07 7.05548e-07 -0.000134634 1.91782e-07 0 0 0 0 0 0 1 0 0 0 0 0 0 0 0 0 232 0.00126 
79 6 0.0124089 0.0548773 -0.0355118 0 0 0 -0.000154109 0.000942805 -1.07468e-05 -6.39072e-05 0.000551536 2.00537e-06 0 0 0 0 0 0 1 0 0 0 0 0 0 0 0 0 292 0.00126 
5432 6 0.0143808 0.0553894 -0.0354874 0 0 0 -0.000722625 0.000475885 1.04665e-05 0.000537375 -0.000827808 -8.38112e-06 0 0 0 0 0 1 0 0 0 0 0 0 0 0 0 0 184 0.00126 
1080 3 0.0170185 0.0550281 -0.0355084 0 0 0 0.00299005 0.00134842 2.59725e-06 0.000510552 0.000344306 5.41332e-07 0 0 0 0 0 0 0 0 0 0 0 0 0 0 0 0 46 0.00126 
982 2 0.00814371 0.057785 -0.0355021 0 0 0 0.00179105 -0.000768631 0.000479196 5.79427e-05 -0.000169798 -0.000152236 0 1 0 0 0 0 0 0 0 0 0 0 0 0 0 0 354 0.00126 
654 3 0.0158543 0.0571611 -0.0355054 0 0 0 0.000292786 -0.0012452 8.54957e-05 -0.00140183 0.000748052 -9.9538e-07 0 0 1 0 0 1 0 0 0 0 0 0 0 0 0 0 358 0.00126 
4632 9 0.0171244 0.0587423 -0.0354955 0 0 0 -0.00055038 0.000491777 0.00158625 0.000644273 -0.000582067 -8.24105e-05 0 0 1 0 0 0 0 0 0 0 0 0 0 0 0 0 204 0.00126 
53 1 0.00954837 0.0596242 -0.0354973 0 0 0 -5.09653e-05 0.00364995 0.00180794 4.49849e-05 -0.000683366 0.000350796 1 1 0 0 0 0 0 0 0 0 0 0 0 0 0 0 689 0.00126 
1199 2 0.0117058 0.0601951 -0.0354993 0 0 0 6.59974e-05 0.00265114 -0.000119807 0.000129648 -0.000108171 5.19223e-05 1 0 0 0 0 0 0 0 0 0 0 0 0 0 0 0 341 0.00126 
1765 2 0.013941 0.0595423 -0.0355014 0 0 0 -0.000484025 -0.00118475 1.14296e-05 -4.29917e-05 -0.000220961 -1.09039e-06 0 0 0 0 0 0 0 0 0 0 0 0 0 0 0 0 15 0.00126 
3690 2 0.018715 0.0614794 -0.035497 0 0 0 -0.00037553 -0.000236748 3.492e-06 9.21881e-06 -3.92279e-06 1.14741e-07 0 1 0 0 0 0 0 0 0 0 0 0 0 0 0 0 127 0.00126 
3090 5 0.0095479 0.0646878 -0.0355045 0 0 0 -0.000140978 -0.00736082 0.00197398 3.55662e-05 -0.000409926 -0.000281335 0 0 0 0 2 0 0 0 0 0 0 0 0 0 0 0 278 0.00126 
2621 7 0.012214 0.0644768 -0.0355 0 0 0 2.18357e-17 4.7621e-17 4.21097e-12 -7.19176e-19 -4.60786e-19 0 0 0 0 0 0 0 0 0 0 0 0 0 0 0 0 0 16 0.00126 
4888 5 0.0168453 0.0642121 -0.0355 0 0 0 -1.47055e-15 3.01158e-16 -8.34114e-13 -1.56268e-15 9.56236e-16 1.77636e-15 0 0 0 0 0 0 0 0 0 0 0 0 0 0 0 0 5 0.00126 
177 4 0.00791261 0.0662372 -0.0354957 0 0 0 0.000545452 -0.000612961 0.000869384 0.000280675 0.000281211 -4.40466e-05 0 0 0 0 1 0 0 0 0 0 0 0 0 0 0 0 285 0.00126 
3174 2 0.0135171 0.0681749 -0.0355 0 0 0 -0.00112614 0.00119852 4.42858e-05 0.000447447 -0.000490179 0.000295742 0 0 0 0 0 0 0 0 0 0 0 0 0 0 0 0 118 0.00126 
8122 9 0.012881 0.0716049 -0.0355 0 0 0 -1.0689e-29 -1.21976e-19 5.0649e-12 2.91581e-30 0 -1.77636e-15 0 0 0 0 0 0 0 0 0 0 0 0 0 0 0 0 4 0.00126 
236 2 0.00636165 0.0728026 -0.0355 0 0 0 -3.46606e-38 -2.7205e-20 -4.21105e-12 2.54033e-39 0 0 0 0 0 0 0 0 0 0 0 0 0 0 0 0 0 0 14 0.00126 
1327 3 0.0143054 0.0738011 -0.0355 0 0 0 -2.32618e-43 -2.62077e-22 -5.06486e-12 1.56265e-43 0 1.77636e-15 0 0 0 0 0 0 0 0 0 0 0 0 0 0 0 0 83 0.00126 
1404 3 0.00460106 0.0515763 -0.0336439 0 0 0 0.191063 -0.010851 0.00732934 0 -4.10998e-05 0 0 0 0 0 0 0 0 0 0 0 0 0 0 0 0 0 264 0.00126 
538 12 0.00811738 0.0548398 -0.0333231 0 0 0 0.264198 -0.505376 0.0861309 0 -4.10998e-05 0 0 0 0 0 0 0 0 0 0 0 0 0 0 0 0 0 308 0.00126 
7441 6 0.00225599 0.0573596 -0.0336624 0 0 0 -0.0600466 -0.649132 -0.238064 0.00531291 0.00258632 0.000391656 0 0 0 0 0 0 0 0 0 0 0 0 0 0 0 0 77 0.00126 
556 6 0.00576204 0.0565513 -0.0334388 0 0 0 -0.235768 -0.603998 -0.0739202 0 -4.10998e-05 0 0 0 0 0 0 0 0 0 0 0 0 0 0 0 0 0 262 0.00126 
3624 9 0.0114529 0.0560593 -0.033224 0 0 0 -1.94278 -0.588142 0.465691 0 -4.10998e-05 0 0 0 0 0 0 0 0 0 0 0 0 0 0 0 0 0 272 0.00126 
8611 7 0.0140579 0.0561967 -0.0327775 0 0 0 -1.27872 -0.831228 -0.103969 0 -4.10998e-05 0 0 0 0 0 0 0 0 0 0 0 0 0 0 0 0 0 74 0.00126 
1075 1 0.0165348 0.0556649 -0.0329625 0 0 0 -1.3146 -1.71108 -0.265182 0 -4.10998e-05 0 0 0 0 0 0 0 0 0 0 0 0 0 0 0 0 0 249 0.00126 
3034 4 0.0127723 0.0585354 -0.0328317 0 0 0 0.130957 -0.536841 0.313129 0.000964388 -0.00224914 0.000599668 0 0 0 1 0 0 0 0 0 0 0 0 0 0 0 0 270 0.00126 
9844 2 0.0156765 0.058741 -0.033039 0 0 0 0.159181 -0.854003 0.274598 0 -4.10998e-05 0 0 0 0 0 0 0 0 0 0 0 0 0 0 0 0 0 2 0.00126 
9367 9 0.00227641 0.0598719 -0.0334199 0 0 0 0.0700472 -0.604524 -0.21372 0 -4.10998e-05 0 0 0 0 0 0 0 0 0 0 0 0 0 0 0 0 0 3 0.00126 
9517 1 0.0104082 0.0603157 -0.0332477 0 0 0 0.0147852 -0.82891 0.402142 -0.00213627 -0.00233662 0.00132592 1 0 0 0 0 0 0 0 0 0 0 0 0 0 0 0 17 0.00126 
9854 1 0.0183069 0.0594285 -0.0333646 0 0 0 -0.269346 -0.156654 0.462038 0 -4.10998e-05 0 0 0 0 0 0 0 0 0 0 0 0 0 0 0 0 0 3 0.00126 
9719 3 0.00624812 0.0617259 -0.0337237 0 0 0 -0.177411 -0.642486 -0.102235 -0.00818104 -0.00672625 -0.00825925 0 0 2 0 0 0 0 0 0 0 0 0 0 0 0 0 3 0.00126 
6266 2 0.0129291 0.0609877 -0.0333723 0 0 0 0.0854746 -0.610173 0.320395 0.00151876 -0.00126453 -0.00249424 0 1 0 1 0 0 0 0 0 0 0 0 0 0 0 0 137 0.00126 
8618 6 0.0153798 0.0613403 -0.032621 0 0 0 0.341856 -1.02362 0.278285 0 -4.10998e-05 0 0 0 0 0 0 0 0 0 0 0 0 0 0 0 0 0 48 0.00126 
9801 1 0.00236988 0.0625344 -0.0335382 0 0 0 0.0257511 -0.50311 0.0787031 0 -4.10998e-05 0 0 0 0 0 0 0 0 0 0 0 0 0 0 0 0 0 4 0.00126 
8059 1 0.00465284 0.0635516 -0.0330978 0 0 0 -0.1355 -0.600691 -0.00724222 -0.00350332 0.00864065 -0.000668512 0 0 1 0 0 0 0 0 0 0 0 0 0 0 0 0 87 0.00126 
9641 4 0.00861478 0.0625065 -0.0336145 0 0 0 -0.124993 -0.734965 -0.430245 0.0153324 0.00462798 0.000526162 0 0 1 0 0 0 0 0 0 0 0 0 0 0 0 0 6 0.00126 
823 4 0.0111122 0.0627152 -0.0333904 0 0 0 -0.175585 -0.725289 -0.366606 0.00303725 0.0103487 0.00571324 1 1 0 1 0 0 0 0 0 0 0 0 0 0 0 0 261 0.00126 
873 4 0.00225771 0.0649676 -0.0328879 0 0 0 0.102252 -0.613127 0.185431 -0.00494202 -0.00192702 0.00477337 0 0 0 1 0 0 0 0 0 0 0 0 0 0 0 0 332 0.00126 
2507 7 0.0152417 0.0638672 -0.0328538 0 0 0 -1.01188 -1.13134 0.2973 0 -4.10998e-05 0 0 0 0 0 0 0 0 0 0 0 0 0 0 0 0 0 329 0.00126 
9761 6 0.0043829 0.0659753 -0.033752 0 0 0 0.254671 -0.664867 0.121066 -0.00193918 -0.00270405 0.00443845 0 0 0 1 0 1 0 0 0 0 0 0 0 0 0 0 7 0.00126 
9264 9 0.00703948 0.0654396 -0.0329859 0 0 0 0.0354153 -0.592118 0.0688228 0 -4.10998e-05 0 0 0 0 0 0 0 0 0 0 0 0 0 0 0 0 0 53 0.00126 
7936 4 0.00971697 0.0660997 -0.0334485 0 0 0 0.264325 -0.570758 0.344115 0.00757079 -0.00775722 -0.00706513 0 0 0 1 1 0 0 0 0 0 0 0 0 0 0 0 87 0.00126 
7175 4 0.00227094 0.0674696 -0.0334214 0 0 0 0.12864 -0.599341 0.0335195 0 -4.10998e-05 0 0 0 0 0 0 0 0 0 0 0 0 0 0 0 0 0 140 0.00126 
7345 1 0.00573507 0.0680784 -0.0336549 0 0 0 -0.0373081 -0.295602 -0.301051 0.000343366 0.00096431 0.00586909 1 0 0 0 0 1 0 0 0 0 0 0 0 0 0 0 76 0.00126 
6467 2 0.0119082 0.0675859 -0.0334784 0 0 0 0.400119 -0.742692 0.0912602 -0.00828742 -0.0148881 -0.00979842 0 1 0 0 0 0 0 0 0 0 0 0 0 0 0 0 175 0.00126 
9608 2 0.0143737 0.0673277 -0.0332765 0 0 0 0.539035 -0.748751 -0.162927 0.0231945 -0.00322937 -0.00137307 0 0 0 0 0 0 0 0 0 0 0 0 0 0 0 0 1 0.00126 
8401 4 0.0168433 0.0678272 -0.033471 0 0 0 0.226221 -0.812467 0.376297 0 -4.10998e-05 0 0 0 0 0 0 0 0 0 0 0 0 0 0 0 0 0 105 0.00126 
2062 4 0.00363146 0.0696029 -0.0335761 0 0 0 -0.138199 -0.251247 -0.271344 0 -4.10998e-05 0 0 0 0 0 0 0 0 0 0 0 0 0 0 0 0 0 202 0.00126 
4804 3 0.00934515 0.068567 -0.0334694 0 0 0 -0.0397673 -0.901878 0.718144 0.000211216 0.0290998 0.00360067 0 0 1 1 0 0 0 0 0 0 0 0 0 0 0 0 201 0.00126 
1268 5 0.00718537 0.0701238 -0.0337496 0 0 0 -0.0487617 -0.349688 0.505812 0.00167529 0.00288232 -0.0144856 1 0 0 0 0 0 0 0 0 0 0 0 0 0 0 0 298 0.00126 
8330 8 0.0119743 0.070514 -0.0332527 0 0 0 -0.110341 -0.0925284 0.00380082 0 -4.10998e-05 0 0 0 0 0 0 0 0 0 0 0 0 0 0 0 0 0 121 0.00126 
4873 2 0.0155013 0.0703197 -0.0335536 0 0 0 0.147779 -0.556831 0.151914 0 -4.10998e-05 0 0 0 0 0 0 0 0 0 0 0 0 0 0 0 0 0 172 0.00126 
875 5 0.0181053 0.070753 -0.0334535 0 0 0 0.394799 -0.677111 0.145293 0 -4.10998e-05 0 0 0 0 0 0 0 0 0 0 0 0 0 0 0 0 0 270 0.00126 
1644 2 0.00456643 0.0719627 -0.0336812 0 0 0 -0.385303 -0.0339284 -1.16895 0 -4.10998e-05 0 0 0 0 0 0 0 0 0 0 0 0 0 0 0 0 0 278 0.00126 
4660 7 0.00986621 0.0718245 -0.0337991 0 0 0 1.65142 -0.511369 -0.238667 -0.00169463 0.00145584 0.0836577 0 0 0 0 0 0 0 0 0 0 0 0 0 0 0 0 216 0.00126 
2793 7 0.0118559 0.0732571 -0.0336525 0 0 0 0.832198 0.465826 -0.448321 0.0612236 0.0432538 -0.00580888 0 0 0 0 0 0 0 0 0 0 0 0 0 0 0 0 285 0.00126 
1641 5 0.0022737 0.0733407 -0.0335162 0 0 0 -0.0125244 -0.242101 0.0581397 0 -4.10998e-05 0 0 0 0 0 0 0 0 0 0 0 0 0 0 0 0 0 340 0.00126 
5369 14 0.00611867 0.0747296 -0.0334952 0 0 0 -0.940548 0.0349843 -1.98243 -0.00712802 0.0261474 -0.0395574 0 0 0 0 0 0 0 0 0 0 0 0 0 1 0 0 255 0.00126 
9787 9 0.00938194 0.0743107 -0.0336597 0 0 0 -0.186431 -0.621146 -0.101922 -0.0193444 -0.02064 -0.00157004 0 0 0 0 0 0 0 0 1 0 0 0 0 0 0 0 6 0.00126 
59 1 0.0163859 0.0745866 -0.0336174 0 0 0 -0.234148 0.19264 0.0687243 0 -4.10998e-05 0 0 0 0 0 0 0 0 0 0 0 0 0 0 0 0 0 283 0.00126 
9649 6 0.00441803 0.0479863 -0.0321798 0 0 0 0.445784 0.192877 -0.501172 0 -4.10998e-05 0 0 0 0 0 0 0 0 0 0 0 0 0 0 0 0 0 1 0.00126 
5736 4 0.0112092 0.0494887 -0.0327034 0 0 0 -0.805014 -0.837162 -0.00523684 0 -4.10998e-05 0 0 0 0 0 0 0 0 0 0 0 0 0 0 0 0 0 71 0.00126 
3366 1 0.00950108 0.0519797 -0.0317344 0 0 0 -0.78634 -0.66384 0.0483772 0 -4.10998e-05 0 0 0 0 0 0 0 0 0 0 0 0 0 0 0 0 0 231 0.00126 
1108 4 0.0136383 0.0530351 -0.0317881 0 0 0 -0.00657799 -0.987251 -0.0944488 0 -4.10998e-05 0 0 0 0 0 0 0 0 0 0 0 0 0 0 0 0 0 279 0.00126 
3317 1 0.00235511 0.0554529 -0.0318231 0 0 0 0.0127203 -0.296388 0.21013 0 -4.10998e-05 0 0 0 0 0 0 0 0 0 0 0 0 0 0 0 0 0 247 0.00126 
9740 3 0.00443015 0.0569113 -0.0313079 0 0 0 -0.262662 -1.02056 -0.0131876 0 -4.10998e-05 0 0 0 0 0 0 0 0 0 0 0 0 0 0 0 0 0 1 0.00126 
7454 7 0.00888547 0.0577214 -0.0315261 0 0 0 0.351325 -0.939948 0.252554 0.0019359 -0.00366548 -0.00236435 0 0 0 0 0 0 0 0 0 0 0 0 0 0 0 0 149 0.00126 
7962 4 0.017414 0.0585516 -0.0311459 0 0 0 0.0863417 -1.25846 0.530918 0 -4.10998e-05 0 0 0 0 0 0 0 0 0 0 0 0 0 0 0 0 0 70 0.00126 
9606 5 0.00795949 0.059799 -0.0327531 0 0 0 -0.216248 -1.03279 -0.181414 0 -4.10998e-05 0 0 0 0 0 0 0 0 0 0 0 0 0 0 0 0 0 4 0.00126 
8092 3 0.00431659 0.0608999 -0.0323552 0 0 0 0.172358 -0.818144 -0.113802 -0.00489642 -0.00732162 0.00794345 0 0 0 0 0 0 0 0 0 0 0 0 0 0 0 0 134 0.00126 
7725 1 0.0096531 0.0634442 -0.0313651 0 0 0 -0.192187 -1.03827 0.242566 0 -4.10998e-05 0 0 0 0 0 0 0 0 0 0 0 0 0 0 0 0 0 109 0.00126 
437 2 0.0121708 0.0640232 -0.0315255 0 0 0 0.113146 -1.12902 0.0606672 -0.000630027 -0.000151019 -0.000786639 0 0 0 1 0 0 0 0 0 0 0 0 0 0 0 0 291 0.00126 
338 6 0.017568 0.0647926 -0.0321134 0 0 0 -0.279899 -0.281418 -0.483111 0 -4.10998e-05 0 0 0 0 0 0 0 0 0 0 0 0 0 0 0 0 0 272 0.00126 
250 6 0.00758686 0.0683177 -0.0316903 0 0 0 -0.179132 -0.643375 -0.0299536 -0.00517899 -0.00552853 0.00813212 0 0 1 0 0 0 0 0 0 0 0 0 0 0 0 0 281 0.00126 
4759 5 0.0125905 0.0665543 -0.0312483 0 0 0 0.355897 -1.92719 -0.0933156 0 -4.10998e-05 0 0 0 0 0 0 0 0 0 0 0 0 0 0 0 0 0 222 0.00126 
929 1 0.0110205 0.0688529 -0.0315083 0 0 0 0.910712 -1.54689 -0.0693669 -0.0097391 -0.00363422 0.0193817 1 1 0 0 0 0 0 0 0 0 0 0 0 0 0 0 287 0.00126 
3058 14 0.0069302 0.072644 -0.0324763 0 0 0 0.486642 0.242945 -1.05617 -0.0066565 -0.00814167 0.0308015 0 0 0 0 0 0 0 0 0 0 0 0 0 1 0 0 277 0.00126 
5346 7 0.00466408 0.0740755 -0.0313978 0 0 0 -0.657054 -0.263345 -0.271663 0 -4.10998e-05 0 0 0 0 0 0 0 0 0 0 0 0 0 0 0 0 0 204 0.00126 
2788 1 0.0110605 0.0739626 -0.0312687 0 0 0 0.228974 -0.270644 -0.0458653 0 -4.10998e-05 0 0 0 0 0 0 0 0 0 0 0 0 0 0 0 0 0 229 0.00126 
7360 1 0.0102181 0.0480755 -0.030817 0 0 0 -0.231716 -1.10088 0.251381 0 -4.10998e-05 0 0 0 0 0 0 0 0 0 0 0 0 0 0 0 0 0 119 0.00126 
9807 8 0.0156083 0.0474272 -0.0315247 0 0 0 -4.44398 -2.45343 -1.16785 0 -4.10998e-05 0 0 0 0 0 0 0 0 0 0 0 0 0 0 0 0 0 2 0.00126 
2417 14 0.0169454 0.0522549 -0.0299558 0 0 0 -0.183019 -0.977937 0.224511 0 -4.10998e-05 0 0 0 0 0 0 0 0 0 0 0 0 0 0 0 0 0 308 0.00126 
9856 7 0.0109488 0.0546507 -0.0301998 0 0 0 -0.126507 -0.929692 0.0786893 0 -4.10998e-05 0 0 0 0 0 0 0 0 0 0 0 0 0 0 0 0 0 3 0.00126 
7346 4 0.0151715 0.0543147 -0.030096 0 0 0 0.0476674 -1.28133 0.0834024 0 -4.10998e-05 0 0 0 0 0 0 0 0 0 0 0 0 0 0 0 0 0 129 0.00126 
6094 5 0.00658895 0.0563044 -0.0300287 0 0 0 -0.0520409 -1.61444 -0.0771542 0 -4.10998e-05 0 0 0 0 0 0 0 0 0 0 0 0 0 0 0 0 0 184 0.00126 
5960 3 0.0114016 0.0572762 -0.0307863 0 0 0 -0.00515199 -0.812211 0.115792 0.000367806 0.000667068 0.000342543 0 0 1 0 0 0 0 0 0 0 0 0 0 0 0 0 206 0.00126 
296 3 0.0163834 0.0565181 -0.0298812 0 0 0 -0.051606 -1.20423 0.296569 0 -4.10998e-05 0 0 0 0 0 0 0 0 0 0 0 0 0 0 0 0 0 262 0.00126 
2580 4 0.0143808 0.0583596 -0.0300344 0 0 0 -0.282814 -1.53186 -0.0027077 0 -4.10998e-05 0 0 0 0 0 0 0 0 0 0 0 0 0 0 0 0 0 180 0.00126 
1137 6 0.00470336 0.0597241 -0.0298608 0 0 0 0.0266078 -0.922172 0.243527 0.00387008 0.00109488 -0.000677187 0 0 0 0 0 2 0 0 0 0 0 0 0 0 0 0 326 0.00126 
2323 7 0.00701025 0.0588618 -0.0303083 0 0 0 -0.0600038 -1.22847 -0.0884662 0.000632608 0.000684361 -0.00104194 0 0 0 0 0 1 1 0 0 0 0 0 0 0 0 0 281 0.00126 
5724 3 0.0109296 0.059973 -0.0303692 0 0 0 -0.568982 -1.37095 0.618794 0 -4.10998e-05 0 0 0 0 0 0 0 0 0 0 0 0 0 0 0 0 0 209 0.00126 
7684 11 0.00230504 0.0619604 -0.0309115 0 0 0 0.0502664 -0.519129 0.0271783 0 -4.10998e-05 0 0 0 0 0 0 0 0 0 0 0 0 0 0 0 0 0 104 0.00126 