ITEM: TIMESTEP
15750000
ITEM: NUMBER OF ATOMS
14024
ITEM: BOX BOUNDS ff ff ff
-0.01 0.45
-0.15 0.15
-0.08 0.1
ITEM: ATOMS id type x y z ix iy iz vx vy vz fx fy fz c_cc_1 c_cc_2 c_cc_3 c_cc_4 c_cc_5 c_cc_6 c_cc_7 c_cc_8 c_cc_9 c_cc_10 c_cc_11 c_cc_12 c_cc_13 c_cc_14 c_cc_15 c_cc_16 f_fppacc radius 
6944 2 0.00897849 -0.00625286 -0.0604206 0 0 0 -6.91232e-07 -1.04294e-13 -1.12552e-12 6.52441e-19 0 0 0 0 0 0 0 0 0 0 0 0 0 0 0 0 0 0 0 0.001 
7938 2 0.0170198 -0.00508187 -0.0605291 0 0 0 5.86848e-07 -4.45044e-13 -4.80279e-12 1.3127e-20 0 0 0 0 0 0 0 0 0 0 0 0 0 0 0 0 0 0 13 0.001 
5329 5 0.0146607 -0.00372644 -0.0606547 0 0 0 -9.94486e-07 1.55969e-13 1.68317e-12 3.65702e-20 0 0 0 0 0 0 0 0 0 0 0 0 0 0 0 0 0 0 5 0.001 
8809 9 0.00805878 -0.00219467 -0.0607966 0 0 0 -1.05061e-06 -2.20113e-13 -2.37541e-12 -1.28685e-18 0 0 0 0 0 0 0 0 0 0 0 0 0 0 0 0 0 0 1 0.001 
11423 1 0.00995191 -0.0015197 -0.0608592 0 0 0 -5.41066e-07 -7.4374e-14 -8.02617e-13 -6.71017e-21 0 0 0 0 0 0 0 0 0 0 0 0 0 0 0 0 0 0 24 0.001 
6205 5 0.00121044 -9.19932e-05 -0.0609915 0 0 0 9.26566e-07 1.04016e-16 1.11032e-15 -1.28078e-18 0 0 0 0 0 0 0 0 0 0 0 0 0 0 0 0 0 0 10 0.001 
2996 9 0.00149306 -0.0110434 -0.0599769 0 0 0 -3.95618e-32 -1.91814e-18 -2.08358e-17 0 0 0 0 0 0 0 0 0 0 0 0 0 0 0 0 0 0 0 3 0.001 
4986 1 0.0107703 -0.0198452 -0.0575041 0 0 0 5.64866e-06 1.12175e-13 3.94251e-13 1.01738e-17 0 0 0 0 0 0 0 0 0 0 0 0 0 0 0 0 0 0 0 0.001 
5739 5 0.0157135 -0.0196236 -0.0575671 0 0 0 1.32874e-07 1.85262e-12 6.51127e-12 -4.67023e-21 0 0 0 0 0 0 0 0 0 0 0 0 0 0 0 0 0 0 147 0.001 
4617 3 0.0138662 -0.0177044 -0.0581132 0 0 0 -5.16182e-07 -4.74298e-13 -1.66698e-12 -1.28185e-18 0 0 0 0 0 0 0 0 0 0 0 0 0 0 0 0 0 0 150 0.001 
10618 13 0.00166709 -0.0218454 -0.056935 0 0 0 2.84548e-06 1.8111e-12 6.36533e-12 5.23421e-18 0 0 0 0 0 0 0 0 0 0 0 0 0 0 0 0 0 0 25 0.001 
15619 8 0.00685758 -0.0289385 -0.0509426 0 0 0 -0.170035 -18.744 10.6269 0 -2.0546e-05 0 0 0 0 0 0 0 0 0 0 0 0 0 0 0 0 0 0 0.001 
4581 4 0.0175249 -0.0278363 -0.0539925 0 0 0 -3.83742e-06 -3.21596e-13 -6.45854e-13 1.03005e-17 0 0 0 0 0 0 0 0 0 0 0 0 0 0 0 0 0 0 158 0.001 
15498 2 0.0159168 -0.00742692 -0.0414273 0 0 0 1.44439 -21.7768 -14.5867 0 -2.0546e-05 0 0 0 0 0 0 0 0 0 0 0 0 0 0 0 0 0 0 0.001 
12450 9 0.0137624 -0.0324589 -0.0516015 0 0 0 -1.14724e-06 -7.87219e-13 -1.04244e-12 5.37742e-20 0 0 0 0 0 0 0 0 0 0 0 0 0 0 0 0 0 0 0 0.001 
10787 10 0.00690046 -0.0152672 -0.0517797 0 0 0 1.18653 -5.25864 -0.0892386 0 -2.0546e-05 0 0 0 0 0 0 0 0 0 0 0 0 0 0 0 0 0 92 0.001 
3692 2 0.0159837 -0.0336041 -0.0507367 0 0 0 1.06284e-06 1.92555e-12 2.54983e-12 5.09221e-18 0 0 0 0 0 0 0 0 0 0 0 0 0 0 0 0 0 0 18 0.001 
2254 1 0.0102118 -0.0369298 -0.0482253 0 0 0 5.11754e-06 -1.98306e-13 -2.626e-13 4.73017e-19 0 0 0 0 0 0 0 0 0 0 0 0 0 0 0 0 0 0 7 0.001 
1595 1 0.0127716 -0.0367989 -0.0483241 0 0 0 2.31109e-06 5.59434e-13 7.40809e-13 -2.64528e-19 0 0 0 0 0 0 0 0 0 0 0 0 0 0 0 0 0 0 5 0.001 
4439 4 0.0147741 -0.0374321 -0.047846 0 0 0 -1.90689e-06 1.48946e-12 1.97236e-12 7.75916e-22 0 0 0 0 0 0 0 0 0 0 0 0 0 0 0 0 0 0 0 0.001 
6905 4 0.0179221 -0.0371991 -0.0480219 0 0 0 5.90245e-07 2.78317e-12 3.68551e-12 -8.72367e-20 0 0 0 0 0 0 0 0 0 0 0 0 0 0 0 0 0 0 22 0.001 
12294 1 0.00998383 -0.0390872 -0.0465961 0 0 0 3.54751e-06 -4.94017e-13 -6.54184e-13 6.58112e-23 0 0 0 0 0 0 0 0 0 0 0 0 0 0 0 0 0 0 10 0.001 
1682 1 0.0133591 -0.0309857 -0.0458172 0 0 0 0.237273 -1.67459 0.314937 0 -2.0546e-05 0 0 0 0 0 0 0 0 0 0 0 0 0 0 0 0 0 192 0.001 
13766 11 0.0174746 -0.0420618 -0.0440195 0 0 0 1.579e-08 1.21261e-12 1.10544e-12 2.62907e-21 0 0 0 0 0 0 0 0 0 0 0 0 0 0 0 0 0 0 0 0.001 
5965 9 0.0173172 -0.0434684 -0.0424766 0 0 0 7.35522e-07 5.24433e-07 -5.76457e-07 -1.42965e-11 -1.02218e-11 1.14214e-09 0 0 0 0 0 0 0 0 0 0 0 0 0 0 0 0 10 0.001 
513 8 0.0115809 -0.0452435 -0.0405293 0 0 0 -4.82974e-07 -5.71376e-13 -5.2088e-13 5.19566e-18 0 0 0 0 0 0 0 0 0 0 0 0 0 0 0 0 0 0 117 0.001 
10003 3 0.0133581 -0.0503446 -0.0304097 0 0 0 10.007 -15.3215 23.2163 0.118045 0.194668 0.137287 0 0 0 0 0 0 0 0 0 0 0 0 0 0 0 0 71 0.001 
13341 1 0.00224442 -0.0396313 -0.0399923 0 0 0 -0.419939 -9.18608 0.172658 0 -2.0546e-05 0 0 0 0 0 0 0 0 0 0 0 0 0 0 0 0 0 56 0.001 
5829 2 0.0182056 -0.0464091 -0.0392507 0 0 0 -4.95903e-08 1.23349e-12 1.12447e-12 -6.51279e-19 0 0 0 0 0 0 0 0 0 0 0 0 0 0 0 0 0 0 27 0.001 
9418 4 0.0181538 -0.0477079 -0.0342208 0 0 0 1.41413 -6.5605 7.9996 0 -2.0546e-05 0 0 0 0 0 0 0 0 0 0 0 0 0 0 0 0 0 116 0.001 
11682 1 0.0164781 -0.0491714 -0.0359655 0 0 0 -1.24893e-06 4.65536e-12 2.88247e-12 6.25306e-20 0 0 0 0 0 0 0 0 0 0 0 0 0 0 0 0 0 0 0 0.001 
5814 1 0.0153059 -0.051603 -0.0320383 0 0 0 -3.48037e-06 -4.16785e-12 -2.58062e-12 -1.02486e-17 0 0 0 0 0 0 0 0 0 0 0 0 0 0 0 0 0 0 0 0.001 
1887 5 0.0181039 -0.0525762 -0.0304667 0 0 0 -4.41061e-07 -2.34466e-12 -1.45175e-12 -1.2704e-18 0 0 0 0 0 0 0 0 0 0 0 0 0 0 0 0 0 0 2 0.001 
2909 2 0.00664276 -0.0279015 -0.0111422 0 0 0 -0.00288891 -22.273 55.7768 0.00024812 0.233264 0.0937027 0 1 0 0 0 0 0 0 0 0 0 0 0 0 0 0 368 0.001 
126 5 0.00864045 -0.0279034 -0.0111924 0 0 0 0.0221106 -22.1273 55.7229 0.0003253 0.228931 0.10386 0 1 0 0 0 0 0 0 0 0 0 0 0 0 0 0 681 0.001 
2696 6 0.0106426 -0.0279175 -0.011137 0 0 0 0.0787341 -21.801 56.8969 -1.79154e-05 0.242712 0.0871769 0 0 0 0 0 0 0 0 0 0 0 0 0 0 0 0 662 0.001 
747 4 0.0126771 -0.0278472 -0.0113209 0 0 0 -0.0260374 -22.6789 55.7668 -0.000154084 0.231376 0.0994997 0 0 0 0 0 0 0 0 0 0 0 0 0 0 0 0 692 0.001 
4739 10 0.0148108 -0.0278925 -0.0112205 0 0 0 0.0539029 -22.9587 56.9489 -4.25471e-05 0.241152 0.103492 0 0 0 0 0 0 0 0 0 0 0 0 0 0 0 0 582 0.001 
4124 8 0.0168273 -0.0279426 -0.0110224 0 0 0 -0.0547664 -22.2567 56.6615 -0.000105646 0.256064 0.083629 0 0 0 0 0 0 0 0 0 0 0 0 0 0 0 0 736 0.001 
1166 1 0.00527163 -0.0548995 -0.0264298 0 0 0 4.25981e-07 2.30783e-12 8.94058e-13 -3.39367e-20 0 0 0 0 0 0 0 0 0 0 0 0 0 0 0 0 0 0 33 0.001 
1028 2 0.0112809 -0.0554651 -0.0249697 0 0 0 7.56192e-07 1.18536e-13 4.59207e-14 1.02655e-17 0 0 0 0 0 0 0 0 0 0 0 0 0 0 0 0 0 0 0 0.001 
10520 1 0.0157164 -0.0561601 -0.0231758 0 0 0 1.44112e-07 2.13254e-12 8.26149e-13 -2.95456e-20 0 0 0 0 0 0 0 0 0 0 0 0 0 0 0 0 0 0 0 0.001 
13887 1 0.0155904 -0.0578346 -0.0188534 0 0 0 8.34284e-09 -9.47106e-13 -3.66911e-13 -1.62612e-19 0 0 0 0 0 0 0 0 0 0 0 0 0 0 0 0 0 0 0 0.001 
443 5 0.0145371 -0.0607398 0.00262491 0 0 0 3.93659e-302 4.77849e-12 -3.9509e-302 1.85537e-307 0 1.85002e-307 0 0 0 0 0 0 0 0 0 0 0 0 0 0 0 0 0 0.001 
15352 4 0.00446572 -0.0567606 0.00943225 0 0 0 0.879983 0.115287 11.7038 0 -2.0546e-05 0 0 0 0 0 0 0 0 0 0 0 0 0 0 0 0 0 1 0.001 
2964 3 0.0101851 -0.0565799 0.00150764 0 0 0 1.7909 -0.0635911 -5.39319 0 -2.0546e-05 0 0 0 0 0 0 0 0 0 0 0 0 0 0 0 0 0 161 0.001 
6749 4 0.00921883 -0.0605886 0.00643734 0 0 0 7.35156e-07 -3.86178e-12 7.21892e-13 1.45957e-19 0 0 0 0 0 0 0 0 0 0 0 0 0 0 0 0 0 0 0 0.001 
15622 2 0.0181949 -0.0582438 0.00853626 0 0 0 -8.08252 4.79868 28.4488 0.012928 0.251913 -0.0706974 0 0 0 0 0 0 0 0 0 0 0 0 0 0 0 0 0 0.001 
1479 6 0.005219 -0.0596905 0.0112414 0 0 0 -3.20094e-07 6.36626e-13 -1.19006e-13 -1.27136e-18 0 0 0 0 0 0 0 0 0 0 0 0 0 0 0 0 0 0 1 0.001 
50 9 0.012698 -0.0574173 0.0199305 0 0 0 -4.57089e-07 4.48602e-12 -1.73789e-12 -3.07008e-19 0 0 0 0 0 0 0 0 0 0 0 0 0 0 0 0 0 0 0 0.001 
9700 7 0.0181135 -0.0556155 0.0245815 0 0 0 -2.35346e-08 2.59076e-12 -1.00367e-12 -3.17778e-19 0 0 0 0 0 0 0 0 0 0 0 0 0 0 0 0 0 0 0 0.001 
3164 10 0.00765017 -0.0550146 0.0261326 0 0 0 -1.18382e-07 2.50287e-12 -9.69618e-13 -2.55332e-18 0 0 0 0 0 0 0 0 0 0 0 0 0 0 0 0 0 0 94 0.001 
10124 4 0.0131483 -0.0499446 0.0347168 0 0 0 2.80129e-06 1.70658e-12 -1.05667e-12 3.45673e-19 0 0 0 0 0 0 0 0 0 0 0 0 0 0 0 0 0 0 20 0.001 
7841 5 0.0167085 -0.0462229 0.0394549 0 0 0 -3.19687e-08 -1.93544e-12 1.76439e-12 -2.59403e-20 0 0 0 0 0 0 0 0 0 0 0 0 0 0 0 0 0 0 102 0.001 
4754 4 0.0172328 -0.0428614 0.0431423 0 0 0 -1.57683e-08 9.38226e-13 -8.55305e-13 -4.14009e-21 0 0 0 0 0 0 0 0 0 0 0 0 0 0 0 0 0 0 52 0.001 
4208 1 0.00179471 -0.032515 0.0515592 0 0 0 -4.95209e-07 -1.04732e-12 1.38687e-12 2.58733e-18 0 0 0 0 0 0 0 0 0 0 0 0 0 0 0 0 0 0 0 0.001 
10001 2 0.0167136 -0.024607 0.0556005 0 0 0 8.88147e-08 1.45685e-14 -2.92543e-14 3.21087e-23 0 0 0 0 0 0 0 0 0 0 0 0 0 0 0 0 0 0 101 0.001 
2288 8 0.00119321 -0.0221483 0.0568257 0 0 0 1.45605e-06 -1.90862e-15 3.75522e-15 -2.22515e-09 0 -4.33681e-19 0 0 0 0 0 0 0 0 0 0 0 0 0 0 0 0 14 0.001 
9951 12 0.00434737 -0.000708235 0.0609344 0 0 0 8.03499e-07 2.07738e-14 -2.24178e-13 3.11128e-20 0 0 0 0 0 0 0 0 0 0 0 0 0 0 0 0 0 0 74 0.001 
1482 5 0.0164805 -0.0139378 0.0591849 0 0 0 1.85562e-06 -5.27647e-13 1.85448e-12 2.24308e-20 0 0 0 0 0 0 0 0 0 0 0 0 0 0 0 0 0 0 175 0.001 
707 1 0.00894192 -0.0136698 0.0592611 0 0 0 -2.19951e-06 -3.42227e-14 1.20286e-13 5.17578e-18 0 0 0 0 0 0 0 0 0 0 0 0 0 0 0 0 0 0 7 0.001 
2203 4 0.0135297 -0.0134813 0.0593148 0 0 0 -3.87558e-06 6.05492e-14 -2.12805e-13 -1.50695e-19 0 0 0 0 0 0 0 0 0 0 0 0 0 0 0 0 0 0 0 0.001 
1111 8 0.00533401 -0.0107803 0.0600011 0 0 0 1.88877e-06 -1.03437e-13 1.11627e-12 -2.57074e-18 0 0 0 0 0 0 0 0 0 0 0 0 0 0 0 0 0 0 0 0.001 
3405 2 0.0157316 -0.00920725 0.0601468 0 0 0 -7.82034e-07 1.97062e-12 2.42408e-12 -9.5973e-13 1.09204e-13 -6.30485e-15 0 0 0 0 0 0 0 0 0 0 0 0 0 0 0 0 112 0.001 
3269 5 0.0161379 -0.00717136 0.0603355 0 0 0 1.04691e-06 2.38998e-13 -9.47514e-13 -3.41327e-16 2.65836e-15 4.75748e-16 0 0 0 0 0 0 0 0 0 0 0 0 0 0 0 0 17 0.001 
13318 3 0.0110763 -0.00404857 0.0606248 0 0 0 2.59248e-07 3.95444e-13 -4.26753e-12 -3.15042e-21 0 0 0 0 0 0 0 0 0 0 0 0 0 0 0 0 0 0 0 0.001 
11481 1 0.0174177 -0.00459276 0.0605744 0 0 0 -2.09586e-07 -2.70009e-14 2.91377e-13 -3.18424e-19 0 0 0 0 0 0 0 0 0 0 0 0 0 0 0 0 0 0 66 0.001 
5022 2 0.0088894 -0.00264674 0.0607547 0 0 0 -6.6843e-07 9.95323e-14 -1.07412e-12 -1.82419e-20 0 0 0 0 0 0 0 0 0 0 0 0 0 0 0 0 0 0 61 0.001 
5468 1 0.0151044 -0.00226679 0.06079 0 0 0 1.85798e-07 4.18092e-13 -4.51195e-12 -4.34425e-23 0 0 0 0 0 0 0 0 0 0 0 0 0 0 0 0 0 0 146 0.001 
7998 1 0.00130652 -8.33946e-05 0.0609923 0 0 0 6.88776e-05 1.3345e-14 -1.51039e-13 2.15002e-17 -2.6563e-18 -4.33681e-19 0 0 0 0 0 0 0 0 0 0 0 0 0 0 0 0 0 0.001 
2465 1 0.0176675 6.76555e-05 -0.0609936 0 0 0 -0.00187484 -1.33609e-14 1.6627e-13 -1.03969e-17 1.23328e-17 8.67362e-19 0 0 0 0 0 0 0 0 0 0 0 0 0 0 0 0 80 0.001 
1035 1 0.00861138 0.00173655 -0.0608391 0 0 0 9.65159e-08 1.36211e-13 -1.46996e-12 1.5952e-21 0 0 0 0 0 0 0 0 0 0 0 0 0 0 0 0 0 0 3 0.001 
11475 5 0.0135567 0.0017885 -0.0608343 0 0 0 2.48028e-07 -1.19124e-13 1.28555e-12 8.42306e-21 0 0 0 0 0 0 0 0 0 0 0 0 0 0 0 0 0 0 6 0.001 
328 3 0.00223201 0.00297759 -0.0607241 0 0 0 2.22431e-06 -3.77382e-13 4.07261e-12 -2.54326e-18 0 0 0 0 0 0 0 0 0 0 0 0 0 0 0 0 0 0 0 0.001 
537 2 0.00533029 0.003581 -0.0606682 0 0 0 1.43719e-07 -1.01766e-13 1.09823e-12 7.68479e-23 0 0 0 0 0 0 0 0 0 0 0 0 0 0 0 0 0 0 9 0.001 
12748 2 0.0106297 0.00265726 -0.0607538 0 0 0 -4.64443e-08 -1.38002e-13 1.48928e-12 -2.67111e-22 0 0 0 0 0 0 0 0 0 0 0 0 0 0 0 0 0 0 1 0.001 
14883 4 0.0154039 0.00308129 -0.0607145 0 0 0 2.00588e-07 2.59546e-13 -2.80094e-12 3.22062e-19 0 0 0 0 0 0 0 0 0 0 0 0 0 0 0 0 0 0 6 0.001 
4161 8 0.0122352 0.004552 -0.0605782 0 0 0 -3.1343e-07 1.01514e-13 -1.0955e-12 2.82443e-21 0 0 0 0 0 0 0 0 0 0 0 0 0 0 0 0 0 0 171 0.001 
4660 4 0.0186976 0.00445615 -0.0605871 0 0 0 -7.1324e-08 9.67325e-14 -1.0439e-12 -8.12409e-20 0 0 0 0 0 0 0 0 0 0 0 0 0 0 0 0 0 0 36 0.001 
2795 1 0.00659778 0.00523034 -0.0605153 0 0 0 1.16256e-06 -5.04284e-13 5.44211e-12 -1.2964e-20 0 0 0 0 0 0 0 0 0 0 0 0 0 0 0 0 0 0 0 0.001 
2242 4 0.00780433 0.0076366 -0.0602924 0 0 0 4.98467e-07 -5.43377e-13 5.86399e-12 -6.37114e-19 0 0 0 0 0 0 0 0 0 0 0 0 0 0 0 0 0 0 30 0.001 
924 2 0.00371275 0.00968617 -0.0601024 0 0 0 -1.77573e-07 -1.17586e-08 -1.08941e-09 -7.91113e-15 2.3473e-16 1.84974e-14 0 1 0 0 0 0 0 0 0 0 0 0 0 0 0 0 50 0.001 
3427 8 0.00565276 0.00921139 -0.0601464 0 0 0 1.77572e-07 1.17588e-08 1.08941e-09 8.00485e-15 -2.02117e-15 5.40366e-16 0 1 0 0 0 0 0 0 0 0 0 0 0 0 0 0 25 0.001 
11712 6 0.00995158 0.00915741 -0.0601514 0 0 0 -4.16101e-07 1.09636e-14 -1.18311e-13 6.48391e-19 0 0 0 0 0 0 0 0 0 0 0 0 0 0 0 0 0 0 3 0.001 
11246 3 0.0143286 0.00931945 -0.0601359 0 0 0 -0.000689586 -0.00441815 -0.000409391 2.57853e-07 8.32294e-07 7.71215e-08 0 0 0 0 0 0 0 0 0 0 0 0 0 0 0 0 2 0.001 
8594 4 0.00790862 0.0105508 -0.0600224 0 0 0 4.78234e-06 -7.14095e-06 2.7975e-05 3.63856e-09 -5.62265e-09 2.2138e-08 0 0 0 1 0 0 0 0 0 0 0 0 0 0 0 0 8 0.001 
6691 3 0.00226014 0.0111004 -0.0599713 0 0 0 -3.50716e-08 1.34757e-09 -3.81081e-10 8.52284e-12 -3.11326e-13 -8.58211e-14 0 0 1 0 0 0 0 0 0 0 0 0 0 0 0 0 45 0.001 
12498 1 0.00604596 0.0112582 -0.0599468 0 0 0 3.10137e-05 6.95219e-06 -2.96942e-05 2.5024e-08 5.42554e-09 -2.36533e-08 0 0 0 1 0 0 0 0 0 0 0 0 0 0 0 0 7 0.001 
1657 3 0.0146541 0.0112759 -0.0599429 0 0 0 -0.0274988 2.47733e-06 2.33276e-07 5.57448e-07 -4.67322e-10 -4.41658e-11 0 0 0 0 0 0 0 0 0 0 0 0 0 0 0 0 49 0.001 
6130 9 0.001018 0.0126107 -0.0595626 0 0 0 -5.52938e-08 -1.32702e-09 3.62637e-10 1.34335e-11 3.64719e-13 -2.32824e-13 0 0 1 0 0 0 0 0 0 0 0 0 0 0 0 0 13 0.001 
14068 5 0.00300383 0.0131528 -0.0594082 0 0 0 -5.32164e-07 -1.26954e-12 4.46196e-12 3.24418e-21 0 0 0 0 0 0 0 0 0 0 0 0 0 0 0 0 0 0 0 0.001 
4788 1 0.010041 0.0145319 -0.0590158 0 0 0 -1.01852e-06 6.30803e-15 -2.21762e-14 2.54409e-18 0 0 0 0 0 0 0 0 0 0 0 0 0 0 0 0 0 0 109 0.001 
11869 4 0.0183492 0.01408 -0.0591444 0 0 0 6.87088e-07 5.58102e-13 -1.96153e-12 -1.75471e-20 0 0 0 0 0 0 0 0 0 0 0 0 0 0 0 0 0 0 83 0.001 
13881 6 0.0137765 0.0150889 -0.0588574 0 0 0 1.80381e-06 1.22334e-13 -4.2996e-13 5.1331e-18 0 0 0 0 0 0 0 0 0 0 0 0 0 0 0 0 0 0 26 0.001 
14336 7 0.00590839 0.0158461 -0.0586419 0 0 0 -1.48449e-06 -4.71178e-13 1.65602e-12 1.57149e-20 0 0 0 0 0 0 0 0 0 0 0 0 0 0 0 0 0 0 1 0.001 
9254 10 0.00842767 0.0160962 -0.0585708 0 0 0 -7.73032e-07 -4.69825e-13 1.65127e-12 4.22803e-20 0 0 0 0 0 0 0 0 0 0 0 0 0 0 0 0 0 0 23 0.001 
5441 8 0.0153922 0.0168022 -0.0583699 0 0 0 -1.23143e-06 1.7348e-12 -6.09717e-12 -2.57484e-18 0 0 0 0 0 0 0 0 0 0 0 0 0 0 0 0 0 0 49 0.001 
2929 1 0.00627992 0.0178525 -0.058071 0 0 0 9.24621e-07 -8.36736e-14 2.94079e-13 2.58239e-18 0 0 0 0 0 0 0 0 0 0 0 0 0 0 0 0 0 0 50 0.001 
2733 2 0.00819921 0.0184131 -0.0579115 0 0 0 -6.80496e-07 1.66933e-13 -5.86708e-13 2.74809e-20 0 0 0 0 0 0 0 0 0 0 0 0 0 0 0 0 0 0 52 0.001 
11302 3 0.0102895 0.0181112 -0.0579974 0 0 0 -4.84104e-07 -1.28954e-13 4.5323e-13 -2.55013e-20 0 0 0 0 0 0 0 0 0 0 0 0 0 0 0 0 0 0 26 0.001 
970 6 0.0180302 0.0177145 -0.0581103 0 0 0 -5.44722e-07 -3.03235e-13 1.06576e-12 -1.27803e-18 0 0 0 0 0 0 0 0 0 0 0 0 0 0 0 0 0 0 156 0.001 
3126 2 0.00548379 0.0196537 -0.0575585 0 0 0 -8.96891e-07 4.12102e-13 -1.44838e-12 -7.75794e-20 0 0 0 0 0 0 0 0 0 0 0 0 0 0 0 0 0 0 15 0.001 
6654 1 0.0128313 0.0191015 -0.0577157 0 0 0 -1.02458e-06 -2.68784e-13 9.44677e-13 3.44558e-22 0 0 0 0 0 0 0 0 0 0 0 0 0 0 0 0 0 0 96 0.001 
11445 4 0.0173813 0.0195675 -0.0575831 0 0 0 5.2495e-07 -2.9992e-13 1.05411e-12 8.62432e-21 0 0 0 0 0 0 0 0 0 0 0 0 0 0 0 0 0 0 66 0.001 
479 2 0.00218888 0.0208379 -0.0572216 0 0 0 -2.15875e-06 -9.27175e-13 3.25868e-12 2.88728e-20 0 0 0 0 0 0 0 0 0 0 0 0 0 0 0 0 0 0 0 0.001 
3804 2 0.00913829 0.0203261 -0.0573672 0 0 0 -5.61162e-07 5.26667e-13 -1.85103e-12 -4.0496e-22 0 0 0 0 0 0 0 0 0 0 0 0 0 0 0 0 0 0 13 0.001 
13977 3 0.00548022 0.0227188 -0.0565407 0 0 0 -2.92752e-07 -1.39646e-12 2.80447e-12 -1.92952e-20 0 0 0 0 0 0 0 0 0 0 0 0 0 0 0 0 0 0 0 0.001 
9724 5 0.00416987 0.0173067 -0.0559857 0 0 0 0.066956 -0.93003 -0.0728941 0 -2.0546e-05 0 0 0 0 0 0 0 0 0 0 0 0 0 0 0 0 0 112 0.001 
340 2 0.00346927 0.023436 -0.0561836 0 0 0 3.65382e-07 4.97603e-13 -9.99321e-13 -1.29965e-18 0 0 0 0 0 0 0 0 0 0 0 0 0 0 0 0 0 0 16 0.001 
7725 3 0.00635078 0.0244188 -0.0556942 0 0 0 -9.19024e-08 1.86694e-12 -3.74933e-12 -9.75609e-21 0 0 0 0 0 0 0 0 0 0 0 0 0 0 0 0 0 0 22 0.001 
7456 5 0.00848788 0.024932 -0.0554386 0 0 0 2.35715e-06 -5.62092e-13 1.12884e-12 1.01872e-17 0 0 0 0 0 0 0 0 0 0 0 0 0 0 0 0 0 0 33 0.001 
3124 8 0.0105132 0.0242365 -0.055785 0 0 0 2.30572e-07 -1.78872e-12 3.59224e-12 -8.74764e-21 0 0 0 0 0 0 0 0 0 0 0 0 0 0 0 0 0 0 142 0.001 
10190 6 0.0128046 0.0247367 -0.0555359 0 0 0 -3.65815e-07 -1.80707e-12 3.62909e-12 -1.27137e-18 0 0 0 0 0 0 0 0 0 0 0 0 0 0 0 0 0 0 16 0.001 
4329 1 0.00362646 0.0256374 -0.0550874 0 0 0 -7.66008e-07 -6.98248e-14 1.40226e-13 2.13828e-22 0 0 0 0 0 0 0 0 0 0 0 0 0 0 0 0 0 0 16 0.001 
6544 12 0.0066437 0.0262279 -0.0547934 0 0 0 -4.32691e-07 -1.17523e-12 2.36018e-12 1.29262e-18 0 0 0 0 0 0 0 0 0 0 0 0 0 0 0 0 0 0 102 0.001 
4437 3 0.0110072 0.0261555 -0.0548294 0 0 0 -7.98338e-07 1.35193e-12 -2.71504e-12 2.55508e-18 0 0 0 0 0 0 0 0 0 0 0 0 0 0 0 0 0 0 57 0.001 
10850 5 0.00941078 0.0274908 -0.0541645 0 0 0 1.11291e-06 -2.05717e-12 4.13134e-12 -5.15132e-18 0 0 0 0 0 0 0 0 0 0 0 0 0 0 0 0 0 0 4 0.001 
1939 4 0.0146172 0.0263815 -0.0547169 0 0 0 6.60117e-07 -2.02286e-12 4.06246e-12 2.52502e-18 0 0 0 0 0 0 0 0 0 0 0 0 0 0 0 0 0 0 5 0.001 
86 10 0.00428657 0.0280721 -0.053875 0 0 0 1.57485e-06 -1.66823e-12 3.35027e-12 2.17704e-19 0 0 0 0 0 0 0 0 0 0 0 0 0 0 0 0 0 0 12 0.001 
14687 4 0.0160662 0.0279931 -0.0539144 0 0 0 -2.11961e-06 -1.78832e-12 3.59143e-12 1.02327e-17 0 0 0 0 0 0 0 0 0 0 0 0 0 0 0 0 0 0 1 0.001 
8397 5 0.01807 0.0281532 -0.0538347 0 0 0 1.2295e-06 -1.72806e-12 3.47042e-12 5.35676e-20 0 0 0 0 0 0 0 0 0 0 0 0 0 0 0 0 0 0 3 0.001 
15446 8 0.0120924 0.0205146 -0.0543312 0 0 0 2.41204 -8.26877 -3.13859 0 -2.0546e-05 0 0 0 0 0 0 0 0 0 0 0 0 0 0 0 0 0 0 0.001 
1737 3 0.00176812 0.0286758 -0.0535745 0 0 0 1.97468e-06 1.78329e-12 -3.58133e-12 5.14824e-18 0 0 0 0 0 0 0 0 0 0 0 0 0 0 0 0 0 0 0 0.001 
4651 1 0.00540814 0.0297901 -0.0530196 0 0 0 -1.35038e-06 1.91963e-12 -3.85514e-12 -2.66585e-19 0 0 0 0 0 0 0 0 0 0 0 0 0 0 0 0 0 0 26 0.001 
7399 6 0.0113754 0.0289255 -0.0534501 0 0 0 1.89364e-06 1.82682e-12 -3.66875e-12 -5.18122e-18 0 0 0 0 0 0 0 0 0 0 0 0 0 0 0 0 0 0 127 0.001 
1608 6 0.00265532 0.0322444 -0.0517618 0 0 0 -0.00296299 5.0369e-13 -6.17756e-13 -6.03071e-19 -6.50521e-19 -4.33681e-19 0 0 0 0 0 0 0 0 0 0 0 0 0 0 0 0 39 0.001 
468 5 0.00647456 0.0313072 -0.0522642 0 0 0 9.01326e-07 2.82566e-12 -5.67469e-12 -4.12725e-20 0 0 0 0 0 0 0 0 0 0 0 0 0 0 0 0 0 0 8 0.001 
3684 5 0.00407568 0.0335471 -0.0507798 0 0 0 2.55107e-08 -2.02939e-14 2.68718e-14 1.63332e-19 0 0 0 0 0 0 0 0 0 0 0 0 0 0 0 0 0 0 31 0.001 
6827 1 0.00640426 0.0339494 -0.050476 0 0 0 -1.34918e-07 2.65168e-12 -3.51139e-12 -6.49978e-19 0 0 0 0 0 0 0 0 0 0 0 0 0 0 0 0 0 0 40 0.001 
7452 3 0.00845223 0.0340776 -0.0503791 0 0 0 -4.67148e-08 1.04041e-12 -1.37772e-12 3.20792e-19 2.1684e-19 0 0 0 0 0 0 0 0 0 0 0 0 0 0 0 0 0 84 0.001 
3363 6 0.00102733 0.0355356 -0.0492781 0 0 0 2.69362e-08 -1.00462e-12 1.33033e-12 1.61935e-19 0 0 0 0 0 0 0 0 0 0 0 0 0 0 0 0 0 0 3 0.001 
9641 3 0.0161942 0.0353701 -0.0494031 0 0 0 -8.54947e-07 -1.03375e-12 1.3689e-12 5.17852e-18 0 0 0 0 0 0 0 0 0 0 0 0 0 0 0 0 0 0 57 0.001 
8770 2 0.00437779 0.0370083 -0.048166 0 0 0 -3.63559e-07 8.2757e-14 -1.0959e-13 -2.57945e-18 0 0 0 0 0 0 0 0 0 0 0 0 0 0 0 0 0 0 5 0.001 
4461 3 0.0180597 0.0376805 -0.0476584 0 0 0 1.22338e-06 2.25387e-08 1.70181e-08 2.17334e-12 -3.25029e-13 -1.66735e-13 0 0 1 0 0 0 0 0 0 0 0 0 0 0 0 0 155 0.001 
14285 1 0.0171116 0.0390856 -0.0465973 0 0 0 -1.81208e-06 -2.25402e-08 -1.70191e-08 1.15122e-12 2.61848e-13 2.50452e-13 0 0 1 0 0 0 0 0 0 0 0 0 0 0 0 0 5 0.001 
4800 5 0.00775002 0.0398704 -0.0460046 0 0 0 -3.31642e-07 1.20017e-12 -1.58928e-12 2.57111e-18 0 0 0 0 0 0 0 0 0 0 0 0 0 0 0 0 0 0 0 0.001 
352 4 0.00118587 0.0416938 -0.0444232 0 0 0 3.00568e-07 -2.11184e-13 1.92518e-13 2.71986e-20 0 0 0 0 0 0 0 0 0 0 0 0 0 0 0 0 0 0 1 0.001 
2051 8 0.0162521 0.0799844 -0.0314027 0 0 0 -5.44152 2.69766 -4.74582 0 -2.0546e-05 0 0 0 0 0 0 0 0 0 0 0 0 0 0 0 0 0 215 0.001 
15436 5 0.0123077 0.0352033 -0.0448934 0 0 0 0.889044 -0.96866 -3.60188 0 -2.0546e-05 0 0 0 0 0 0 0 0 0 0 0 0 0 0 0 0 0 0 0.001 
10627 11 0.00803663 0.0428612 -0.0431426 0 0 0 -1.05783e-06 -3.7805e-12 3.44638e-12 -2.57791e-19 0 0 0 0 0 0 0 0 0 0 0 0 0 0 0 0 0 0 7 0.001 
12760 5 0.00634635 0.0264251 -0.0469914 0 0 0 5.38033 4.89808 -11.5205 0 -2.0546e-05 0 0 0 0 0 0 0 0 0 0 0 0 0 0 0 0 0 52 0.001 
13198 6 0.0164157 0.0456465 -0.0400873 0 0 0 5.58647e-08 -1.56088e-12 1.42293e-12 -3.07807e-21 0 0 0 0 0 0 0 0 0 0 0 0 0 0 0 0 0 0 0 0.001 
11681 10 0.0022928 0.0209454 -0.044495 0 0 0 1.81164 -5.85827 -7.24263 0 -2.0546e-05 0 0 0 0 0 0 0 0 0 0 0 0 0 0 0 0 0 70 0.001 
13309 5 0.00394743 0.0406944 -0.0407194 0 0 0 0.126778 -2.4533 -2.54501 0 -2.0546e-05 0 0 0 0 0 0 0 0 0 0 0 0 0 0 0 0 0 36 0.001 
678 3 0.0106396 0.0517322 -0.0355 0 0 0 1.24058e-14 -1.62749e-14 -4.80124e-13 2.07733e-15 -2.25167e-15 0 0 0 1 0 0 0 0 0 0 0 0 0 0 0 0 0 81 0.001 
11000 4 0.0137362 0.0513216 -0.0355004 0 0 0 -4.6215e-16 -7.82777e-16 6.08193e-12 0 0 0 0 0 0 0 0 0 0 0 0 0 0 0 0 0 0 0 0 0.001 
5921 4 0.015304 0.052358 -0.0354996 0 0 0 1.05426e-16 6.55522e-16 6.08148e-12 0 0 0 0 0 0 0 0 0 0 0 0 0 0 0 0 0 0 0 0 0.001 
4189 4 0.0085958 0.0527528 -0.0355 0 0 0 7.14243e-161 -1.46742e-19 -2.74741e-15 4.54344e-162 0 0 0 0 0 0 0 0 0 0 0 0 0 0 0 0 0 0 0 0.001 
6418 10 0.0121132 0.0530504 -0.0355025 0 0 0 -4.29471e-14 4.36461e-15 -4.7973e-13 -5.93969e-15 1.05471e-15 0 0 0 1 0 0 0 0 0 0 1 0 0 0 0 0 0 151 0.001 
9905 8 0.0173509 0.0537452 -0.0355 0 0 0 2.14363e-302 1.46021e-19 -6.08166e-12 1.70146e-307 0 4.44089e-16 0 0 0 0 0 0 0 0 0 0 0 0 0 0 0 0 45 0.001 
12685 7 0.00710461 0.054351 -0.0355003 0 0 0 -5.24175e-17 -3.63646e-16 6.18235e-16 -3.46945e-18 0 0 0 0 0 0 0 0 1 0 0 0 0 0 0 0 0 0 65 0.001 
1142 4 0.0100837 0.0545473 -0.0355197 0 0 0 6.83302e-15 -1.50175e-14 -4.78483e-13 5.55112e-16 -1.67227e-15 0 0 0 0 1 0 0 0 0 0 0 0 0 0 0 0 0 73 0.001 
12215 5 0.0115591 0.0547082 -0.0354798 0 0 0 3.59238e-14 1.9889e-14 -4.78041e-13 5.44009e-15 2.38698e-15 0 0 0 0 1 1 0 0 0 0 1 0 0 0 0 0 0 210 0.001 
59 2 0.00793007 0.0560904 -0.0354997 0 0 0 7.13297e-17 4.13768e-16 7.99584e-16 3.46945e-18 0 0 0 0 0 0 0 0 1 0 0 0 0 0 0 0 0 0 26 0.001 
2503 6 0.014377 0.0558053 -0.0354953 0 0 0 -4.23656e-16 -6.0944e-16 7.28294e-13 0 -1.38778e-17 0 0 0 0 0 0 1 0 0 0 0 0 0 0 0 0 0 206 0.001 
5444 1 0.016096 0.0562225 -0.0355027 0 0 0 -9.78865e-18 1.8472e-16 7.23412e-13 2.77556e-17 0 0 0 0 0 0 0 1 0 0 0 0 0 0 0 0 0 0 206 0.001 
3655 2 0.00550945 0.0563245 -0.0355 0 0 0 -8.532e-75 8.98174e-20 6.08169e-12 -1.25811e-75 0 -4.44089e-16 0 0 0 0 0 0 0 0 0 0 0 0 0 0 0 0 1 0.001 
1323 3 0.0103661 0.0573862 -0.0355 0 0 0 4.03018e-90 -1.01441e-19 1.01868e-12 1.16771e-90 0 4.44089e-16 0 0 0 0 0 0 0 0 0 0 0 0 0 0 0 0 44 0.001 
4773 4 0.0121495 0.0564236 -0.0354979 0 0 0 -1.12232e-14 6.64405e-15 -4.79758e-13 -1.56819e-15 3.60822e-16 0 0 0 0 0 1 0 0 0 0 0 0 0 0 0 0 0 171 0.001 
5917 1 0.0172832 0.0574527 -0.035502 0 0 0 -1.73512e-15 1.59958e-15 7.21619e-13 -2.77556e-17 0 0 0 0 0 0 0 0 0 0 0 0 0 0 0 0 0 0 5 0.001 
906 2 0.0071627 0.0599301 -0.0355 0 0 0 -6.81775e-08 -1.19906e-07 2.95578e-12 1.90258e-07 3.34609e-07 1.55431e-14 0 1 0 0 0 0 0 0 0 0 0 0 0 0 0 0 174 0.001 
960 4 0.0088892 0.0589484 -0.0355 0 0 0 6.81775e-08 1.19906e-07 5.15259e-12 -1.90258e-07 -3.34609e-07 -1.5099e-14 0 1 0 0 0 0 0 0 0 0 0 0 0 0 0 0 205 0.001 
5481 5 0.0140855 0.0603474 -0.0355 0 0 0 -3.14703e-31 -5.62519e-20 5.07133e-12 -2.43731e-31 -1.69407e-21 -4.44089e-16 0 0 0 0 0 0 0 0 0 0 0 0 0 0 0 0 1 0.001 
1104 3 0.0182947 0.060653 -0.0355 0 0 0 -2.57975e-302 -7.81359e-20 4.05546e-12 -1.80459e-307 0 0 0 0 0 0 0 0 0 0 0 0 0 0 0 0 0 0 34 0.001 
8602 2 0.00512582 0.0628729 -0.0355 0 0 0 -3.2496e-86 -3.29302e-20 -1.01866e-12 7.31707e-87 0 4.44089e-16 0 0 0 0 0 0 0 0 0 0 0 0 0 0 0 0 1 0.001 
13036 1 0.00951477 0.0633821 -0.0355 0 0 0 -8.03379e-50 1.46025e-19 6.08169e-12 6.52834e-51 0 -4.44089e-16 0 0 0 0 0 0 0 0 0 0 0 0 0 0 0 0 27 0.001 
5396 3 0.00662134 0.064691 -0.0355 0 0 0 8.18262e-09 3.22851e-09 -1.81259e-08 -1.2141e-09 6.63309e-09 5.21673e-09 0 0 0 0 0 0 0 0 0 0 0 0 0 0 0 0 0 0.001 
298 6 0.00242574 0.0664942 -0.0355 0 0 0 9.53911e-90 -1.15644e-20 5.07136e-12 -6.5482e-90 0 -4.44089e-16 0 0 0 0 0 0 0 0 0 0 0 0 0 0 0 0 1 0.001 
646 8 0.00509639 0.0662627 -0.0355 0 0 0 6.0089e-38 -3.33861e-20 6.08164e-12 1.49105e-38 0 4.44089e-16 0 0 0 0 0 0 0 0 0 0 0 0 0 0 0 0 1 0.001 
3087 3 0.00711302 0.0674544 -0.0354955 0 0 0 0.000187971 0.000372449 -1.23421e-07 -3.32729e-05 -6.59105e-05 -1.09836e-08 0 0 1 0 0 0 0 0 0 0 0 0 0 0 0 0 213 0.001 
5338 1 0.00884995 0.0666006 -0.0355006 0 0 0 -8.81261e-05 -0.000179287 -5.33564e-08 1.47784e-05 3.01629e-05 -2.68004e-09 0 0 1 0 0 0 0 0 0 0 0 0 0 0 0 0 208 0.001 
1098 3 0.0110478 0.0667447 -0.0355 0 0 0 -3.51194e-65 5.61598e-20 6.08168e-12 6.07168e-66 1.69407e-21 -4.44089e-16 0 0 0 0 0 0 0 0 0 0 0 0 0 0 0 0 35 0.001 
3146 10 0.00196444 0.0686575 -0.0355 0 0 0 -7.32794e-113 -1.23124e-19 -4.0554e-12 1.69773e-113 0 0 0 0 0 0 0 0 0 0 0 0 0 0 0 0 0 0 4 0.001 
470 3 0.00568466 0.0681913 -0.0355039 0 0 0 -0.000100251 -0.000192788 -3.28942e-07 1.85735e-05 3.56786e-05 -1.31716e-08 0 0 0 0 0 0 0 0 0 0 0 0 0 0 0 0 4 0.001 
11442 1 0.0141583 0.0689806 -0.0355 0 0 0 -1.39469e-155 -7.89177e-20 -6.08171e-12 4.47048e-156 0 -4.44089e-16 0 0 0 0 0 0 0 0 0 0 0 0 0 0 0 0 3 0.001 
799 2 0.0171583 0.0694491 -0.0355 0 0 0 -3.50264e-302 5.6696e-20 2.02928e-12 -1.80707e-307 0 0 0 0 0 0 0 0 0 0 0 0 0 0 0 0 0 0 3 0.001 
986 3 0.00650157 0.0707523 -0.0355 0 0 0 7.0523e-61 1.68454e-19 -5.07135e-12 -1.92002e-61 -1.69407e-21 -4.44089e-16 0 0 0 0 0 0 0 0 0 0 0 0 0 0 0 0 7 0.001 
2458 5 0.0156386 0.0721399 -0.0354973 0 0 0 2.39067e-15 1.39401e-15 1.52186e-12 0 0 0 0 0 0 0 1 0 0 0 0 0 0 0 0 0 0 0 200 0.001 
6370 7 0.0172014 0.0729372 -0.0355027 0 0 0 -1.83881e-15 -1.25646e-15 1.52042e-12 0 0 0 0 0 0 0 1 0 0 0 0 0 0 0 0 0 0 0 166 0.001 
4915 1 0.0179039 0.0754324 -0.0355 0 0 0 -2.71149e-302 -4.44321e-20 -4.06082e-12 1.72702e-307 0 0 0 0 0 0 0 0 0 0 0 0 0 0 0 0 0 0 4 0.001 
13778 2 0.0179566 0.0799069 -0.0355 0 0 0 6.71794e-22 -2.20934e-20 2.02919e-12 -7.81716e-23 0 0 0 0 0 0 0 0 0 0 0 0 0 0 0 0 0 0 1 0.001 
2160 3 0.0182385 0.0846745 -0.0355 0 0 0 -9.53904e-59 1.46056e-19 2.03448e-12 9.22508e-60 0 0 0 0 0 0 0 0 0 0 0 0 0 0 0 0 0 0 7 0.001 
14139 2 0.0098513 0.056735 0.00336684 0 0 0 -5.03208 2.16587 -17.6996 0 -2.0546e-05 0 0 0 0 0 0 0 0 0 0 0 0 0 0 0 0 0 1 0.001 
15641 5 0.00669703 0.0311232 -0.0439476 0 0 0 -14.3552 -28.775 -18.4694 0 -2.0546e-05 0 0 0 0 0 0 0 0 0 0 0 0 0 0 0 0 0 0 0.001 
14222 3 0.0172258 0.0332636 -0.0351761 0 0 0 0.155173 -2.09193 -0.580477 0 -2.0546e-05 0 0 0 0 0 0 0 0 0 0 0 0 0 0 0 0 0 23 0.001 
15559 4 0.00461018 0.041168 -0.0349382 0 0 0 -2.99529 -3.1328 -0.384175 0 -2.0546e-05 0 0 0 0 0 0 0 0 0 0 0 0 0 0 0 0 0 0 0.001 
10900 8 0.00766458 0.0445069 -0.0338883 0 0 0 0.840665 -1.62985 -0.200668 0 -2.0546e-05 0 0 0 0 0 0 0 0 0 0 0 0 0 0 0 0 0 70 0.001 
14778 8 0.0169003 0.0485587 -0.0339058 0 0 0 -1.2139 -1.39646 -0.120198 0 -2.0546e-05 0 0 0 0 0 0 0 0 0 0 0 0 0 0 0 0 0 14 0.001 
1326 4 0.00230547 0.0631108 -0.0339939 0 0 0 -0.281092 0.310917 0.186456 0 -2.0546e-05 0 0 0 0 0 0 0 0 0 0 0 0 0 0 0 0 0 175 0.001 
15631 9 0.00797456 0.0639928 -0.0327593 0 0 0 1.76545 0.642187 2.72567 0 -2.0546e-05 0 0 0 0 0 0 0 0 0 0 0 0 0 0 0 0 0 0 0.001 
5001 1 0.00245827 0.0704965 -0.0339236 0 0 0 0.0737595 -0.318585 -0.351493 0 -2.0546e-05 0 0 0 0 0 0 0 0 0 0 0 0 0 0 0 0 0 156 0.001 
15278 9 0.00299998 0.0735032 -0.0337181 0 0 0 0.128068 0.029368 0.234847 0 -2.0546e-05 0 0 0 0 0 0 0 0 0 0 0 0 0 0 0 0 0 2 0.001 
2918 6 0.0144126 0.0727707 -0.0337634 0 0 0 -0.224252 -0.609038 0.175058 0 -2.0546e-05 0 0 0 0 0 0 0 0 0 0 0 0 0 0 0 0 0 199 0.001 
5232 2 0.0128536 0.074469 -0.0338981 0 0 0 0.528448 0.123423 0.127121 0 -2.0546e-05 0 0 0 0 0 0 0 0 0 0 0 0 0 0 0 0 0 136 0.001 
15511 7 0.00271047 0.0757141 -0.0339844 0 0 0 -0.177594 -0.130496 0.0927375 0 -2.0546e-05 0 0 0 0 0 0 0 0 0 0 0 0 0 0 0 0 0 0 0.001 
9553 2 0.00416925 0.0772379 -0.0340022 0 0 0 0.0634223 -0.236128 0.0554275 0.00011125 2.74954e-05 -9.25465e-05 0 1 0 0 0 0 0 0 0 0 0 0 0 0 0 0 116 0.001 
3378 1 0.00645077 0.0768123 -0.0339531 0 0 0 0.155459 -0.154564 0.0763094 0 -2.0546e-05 0 0 0 0 0 0 0 0 0 0 0 0 0 0 0 0 0 169 0.001 
8990 11 0.00848719 0.0765261 -0.0336852 0 0 0 0.0157969 -0.308616 0.193656 0 -2.0546e-05 0 0 0 0 0 0 0 0 0 0 0 0 0 0 0 0 0 120 0.001 
11872 11 0.0114342 0.0768817 -0.0339984 0 0 0 0.457581 -0.0406671 0.0670525 -0.00125379 -0.00574883 0.00282189 0 0 0 0 0 0 0 0 0 0 1 0 0 0 0 0 85 0.001 
15552 3 0.0148445 0.0772198 -0.0337951 0 0 0 0.715356 0.683691 0.031237 0 -2.0546e-05 0 0 0 0 0 0 0 0 0 0 0 0 0 0 0 0 0 0 0.001 
336 4 0.00199799 0.0782199 -0.0337937 0 0 0 0.0383961 0.350927 0.26803 -0.000156227 -0.000668828 0.000425692 0 0 0 1 0 0 0 0 0 0 0 0 0 0 0 0 173 0.001 
807 5 0.00773913 0.0785692 -0.0339867 0 0 0 0.116079 -0.106778 0.401742 0 -2.0546e-05 0 0 0 0 0 0 0 0 0 0 0 0 0 0 0 0 0 197 0.001 
6843 6 0.00977324 0.0783264 -0.0339708 0 0 0 -0.083735 -0.0812537 0.0427166 -0.013313 0.00114851 -0.00405614 0 0 0 0 0 0 0 0 0 0 0 0 0 0 0 0 136 0.001 
10323 3 0.00234805 0.0801728 -0.0340095 0 0 0 -0.576908 0.46278 0.0625321 -0.000253462 -0.00047731 -0.000227139 0 0 1 1 0 0 0 0 0 0 0 0 0 0 0 0 99 0.001 
4388 6 0.0116849 0.078855 -0.0339844 0 0 0 -0.385813 -0.0432159 0.271857 0.0145668 0.00453868 0.00123425 0 0 0 0 0 0 0 0 0 0 1 0 0 0 0 0 179 0.001 
15576 5 0.0134997 0.0798718 -0.0340029 0 0 0 0.0619158 0.191022 0.0643695 -0.00127077 0.000186797 0.000362666 0 0 0 0 1 0 0 0 0 0 0 0 0 0 0 0 1 0.001 
2598 7 0.00570761 0.0802042 -0.0335824 0 0 0 -0.145689 0.290836 -0.0928388 0 -2.0546e-05 0 0 0 0 0 0 0 0 0 0 0 0 0 0 0 0 0 175 0.001 
15367 8 0.00754824 0.0810186 -0.0339741 0 0 0 0.26448 0.0693684 0.0740302 -0.00155771 -0.00107057 7.95342e-05 0 0 0 0 0 0 0 2 0 0 0 0 0 0 0 0 2 0.001 
3591 4 0.0094371 0.0803266 -0.0339744 0 0 0 0.0923 -0.0498203 0.0298281 0 -2.0546e-05 0 0 0 0 0 0 0 0 0 0 0 0 0 0 0 0 0 169 0.001 