ITEM: TIMESTEP
20000000
ITEM: NUMBER OF ATOMS
2412
ITEM: BOX BOUNDS ff ff ff
-0.01 0.45
-0.15 0.15
-0.08 0.1
ITEM: ATOMS id type x y z ix iy iz vx vy vz fx fy fz c_cc_1 c_cc_2 c_cc_3 c_cc_4 c_cc_5 c_cc_6 c_cc_7 c_cc_8 c_cc_9 c_cc_10 c_cc_11 c_cc_12 c_cc_13 c_cc_14 c_cc_15 c_cc_16 f_fppacc radius 
287 4 0.00948381 -0.055974 -0.0100367 0 0 0 0.289364 -10.3312 17.885 0 -0.000164368 0 0 0 0 0 0 0 0 0 0 0 0 0 0 0 0 0 259 0.002 
2453 5 0.0165149 -0.000134345 -0.0438848 0 0 0 0.399522 -1.9277 -0.444975 0 -0.000164368 0 0 0 0 0 0 0 0 0 0 0 0 0 0 0 0 0 0 0.002 
1042 7 0.0124786 -0.0503585 0.0202043 0 0 0 0.961152 2.41999 1.99303 0 -0.000164368 0 0 0 0 0 0 0 0 0 0 0 0 0 0 0 0 0 181 0.002 
2247 1 0.00977166 -0.0441294 0.0231123 0 0 0 7.41917 10.3419 5.42232 0 -0.000164368 0 0 0 0 0 0 0 0 0 0 0 0 0 0 0 0 0 30 0.002 
2438 7 0.00315193 -0.0469874 0.0335098 0 0 0 0.732948 6.82958 10.0253 0 -0.000164368 0 0 0 0 0 0 0 0 0 0 0 0 0 0 0 0 0 2 0.002 
1293 2 0.0178312 0.00991319 -0.0600602 0 0 0 1.93594e-30 -5.97585e-15 2.70558e-14 0 0 0 0 0 0 0 0 0 0 0 0 0 0 0 0 0 0 0 1 0.002 
165 4 0.00901726 0.0232597 -0.0563134 0 0 0 -3.06204e-29 1.63189e-14 -2.24586e-14 0 0 0 0 0 0 0 0 0 0 0 0 0 0 0 0 0 0 0 3 0.002 
1799 7 0.0110365 0.0636668 0.00983387 0 0 0 0.994276 -0.157902 -1.77857 0 -0.000164368 0 0 0 0 0 0 0 0 0 0 0 0 0 0 0 0 0 111 0.002 
388 12 0.00877401 0.0420231 -0.0441343 0 0 0 3.78909e-29 -1.12418e-14 8.50392e-15 -9.09667e-30 0 0 0 0 0 0 0 0 0 0 0 0 0 0 0 0 0 0 2 0.002 
279 3 0.0111734 0.00782752 -0.0391248 0 0 0 1.16031 -3.00816 1.12383 0 -0.000164368 0 0 0 0 0 0 0 0 0 0 0 0 0 0 0 0 0 201 0.002 
1104 4 0.00567218 0.0211195 -0.0407337 0 0 0 -0.847031 -1.63563 -2.9467 0 -0.000164368 0 0 0 0 0 0 0 0 0 0 0 0 0 0 0 0 0 175 0.002 
721 1 0.0130595 0.0291584 -0.0410806 0 0 0 -0.573892 -1.88237 -1.90728 0 -0.000164368 0 0 0 0 0 0 0 0 0 0 0 0 0 0 0 0 0 172 0.002 
817 1 0.0119585 0.0222254 -0.0389252 0 0 0 0.0908634 -1.52046 -4.16908 0 -0.000164368 0 0 0 0 0 0 0 0 0 0 0 0 0 0 0 0 0 194 0.002 
399 5 0.0145905 0.0517128 -0.0355011 0 0 0 -7.89926e-16 6.43781e-16 3.64627e-12 0 0 0 0 0 0 0 0 0 0 0 0 0 0 0 0 0 0 0 5 0.002 
64 5 0.0170475 0.0545575 -0.0354989 0 0 0 6.65094e-16 -4.37074e-16 3.64552e-12 0 0 0 0 0 0 0 0 0 0 0 0 0 0 0 0 0 0 0 2 0.002 
1030 2 0.0129882 0.0572989 -0.0355 0 0 0 3.61671e-36 -2.23162e-19 -4.4895e-12 -1.66271e-35 0 0 0 0 0 0 0 0 0 0 0 0 0 0 0 0 0 0 73 0.002 
1077 3 0.00307691 0.0561777 -0.032908 0 0 0 0.0357658 -0.362596 -0.2218 0 -0.000164368 0 0 0 0 0 0 0 0 0 0 0 0 0 0 0 0 0 12 0.002 
40 2 0.00701988 0.0591983 -0.0328054 0 0 0 0.170473 -0.42627 0.094339 0 -0.000164368 0 0 0 0 0 0 0 0 0 0 0 0 0 0 0 0 0 55 0.002 
1584 6 0.0124559 0.0605259 -0.0329762 0 0 0 0.0156612 -0.348849 0.0280384 0 -0.000164368 0 0 0 0 0 0 0 0 0 0 0 0 0 0 0 0 0 152 0.002 
1991 2 0.00346667 0.0664115 -0.0324368 0 0 0 0.0530454 -0.220927 0.125679 0 -0.000164368 0 0 0 0 0 0 0 0 0 0 0 0 0 0 0 0 0 85 0.002 
2026 4 0.00713526 0.0699832 -0.0321936 0 0 0 0.289564 -0.607427 -0.367216 0 -0.000164368 0 0 0 0 0 0 0 0 0 0 0 0 0 0 0 0 0 43 0.002 
2450 3 0.00326365 0.0718041 -0.0330154 0 0 0 0.131546 -0.391723 -0.0178475 0.0116167 0.0107398 0.0318653 0 0 0 0 0 0 0 0 0 0 0 0 0 0 0 0 0 0.002 
1159 1 0.0178863 0.0715319 -0.0330316 0 0 0 0.0936845 -0.988159 0.0199674 -0.00511933 0.00637333 -0.0110626 1 0 0 0 0 0 0 0 0 0 0 0 0 0 0 0 164 0.002 
1137 5 0.00371343 0.0759056 -0.0329831 0 0 0 0.146896 -0.213507 0.0188459 0 -0.000164368 0 0 0 0 0 0 0 0 0 0 0 0 0 0 0 0 0 221 0.002 
2434 1 0.00789283 0.0758164 -0.0329915 0 0 0 0.0296052 -0.368312 0.0251878 0 -0.000164368 0 0 0 0 0 0 0 0 0 0 0 0 0 0 0 0 0 0 0.002 
740 12 0.0173459 0.0758585 -0.0326969 0 0 0 -0.455324 -0.861276 -1.20626 0 -0.000164368 0 0 0 0 0 0 0 0 0 0 0 0 0 0 0 0 0 223 0.002 
1393 1 0.0113124 0.0779536 -0.0329318 0 0 0 -0.041607 -0.114804 0.0200398 0 -0.000164368 0 0 0 0 0 0 0 0 0 0 0 0 0 0 0 0 0 155 0.002 
2439 1 0.00611777 0.0808547 -0.0329944 0 0 0 -0.342438 -0.316065 0.0625268 0 -0.000164368 0 0 0 0 0 0 0 0 0 0 0 0 0 0 0 0 0 0 0.002 
596 2 0.00329772 0.0838382 -0.0329458 0 0 0 0.0291948 0.277828 0.0150586 0 -0.000164368 0 0 0 0 0 0 0 0 0 0 0 0 0 0 0 0 0 210 0.002 
32 4 0.00997504 0.0840022 -0.0330014 0 0 0 0.182215 0.0667624 0.0334176 0.000185974 1.14305e-06 -0.000447991 0 0 0 0 0 0 0 0 0 0 0 0 0 0 0 0 168 0.002 
1236 4 0.0132903 0.0817599 -0.0329861 0 0 0 -0.162608 -0.450535 0.0538241 0 -0.000164368 0 0 0 0 0 0 0 0 0 0 0 0 0 0 0 0 0 170 0.002 
683 2 0.00654471 0.0862294 -0.0329927 0 0 0 -0.116475 0.0886934 0.0572086 -0.0291205 -0.00521268 0.0047305 0 1 0 0 0 0 0 0 0 0 0 0 0 0 0 0 103 0.002 
2455 2 0.0170774 0.0847833 -0.0329987 0 0 0 -0.225048 -0.27961 -0.0475905 -0.0141249 -0.00476434 -0.0425656 0 1 0 0 0 0 0 0 0 0 0 0 0 0 0 0 4 0.002 
2023 12 0.00300801 0.0876686 -0.0317728 0 0 0 0.00642461 0.323322 -0.209975 0.00910069 0.00362922 -0.0766281 0 0 0 0 0 0 0 0 0 0 0 1 0 0 0 0 94 0.002 
481 8 0.00992204 0.0883341 -0.0329474 0 0 0 -0.24374 -0.119548 -0.233907 0.0150238 0.0195956 -0.0375003 0 1 0 0 0 0 0 3 0 0 0 0 0 0 0 0 232 0.002 
226 5 0.0134997 0.0866129 -0.0331387 0 0 0 0.0119588 0.871203 0.0725876 -0.030324 -0.0403711 0.237113 0 0 0 0 3 0 0 1 0 0 0 0 0 0 0 0 177 0.002 
1568 7 0.00599344 0.0902363 -0.0329364 0 0 0 0.225927 0.166728 -0.00216068 -0.0242274 -0.0265159 0.00683523 0 0 0 0 0 0 1 0 0 0 0 0 0 0 0 0 137 0.002 
583 3 0.0166551 0.0890493 -0.0330145 0 0 0 -0.327161 -0.31606 0.0895547 0.0102325 0.043885 -0.014527 0 0 0 0 1 0 0 0 0 0 0 0 0 0 0 0 190 0.002 
680 15 0.0029948 0.0929116 -0.0329836 0 0 0 0.00450185 -0.00566664 0.0480428 0.00267009 0.00193392 -0.00249284 0 0 0 0 0 0 0 0 0 0 0 0 0 0 2 0 215 0.002 
359 6 0.00939971 0.0922903 -0.0328903 0 0 0 -0.00591643 -0.0408295 -0.0290679 0.0304218 0.0109479 -0.00480867 0 0 0 0 0 2 1 1 0 0 0 0 0 0 0 0 209 0.002 
1188 1 0.0132324 0.0911576 -0.0330391 0 0 0 0.151865 0.47469 0.287029 -0.0104715 0.0920185 -0.0287618 2 0 0 0 0 1 0 0 0 0 0 0 0 0 0 0 149 0.002 
1855 2 0.00643385 0.0949378 -0.0328967 0 0 0 0.00868892 0.0639338 0.0588427 0.0157723 0.000566898 -0.00294117 0 2 0 0 0 1 0 0 0 0 0 0 0 0 1 0 110 0.002 
1842 7 0.014217 0.0949792 -0.0330139 0 0 0 0.191451 0.369104 -0.0284978 0.008137 0.0602031 0.0339913 1 0 0 0 0 0 0 0 0 0 0 0 0 0 0 0 98 0.002 
2367 4 0.0180265 0.0935206 -0.0328984 0 0 0 0.118443 -0.2314 0.054233 -0.00207935 -0.0038527 -0.000792788 0 0 0 1 0 0 0 0 0 0 0 0 0 0 0 0 5 0.002 
2046 5 0.00298787 0.0969181 -0.0330021 0 0 0 -0.014379 -0.0104924 0.0121366 0.00379539 0.00131441 0.000858492 0 1 0 0 2 0 0 0 0 0 0 0 0 0 0 0 66 0.002 
1289 2 0.0103261 0.0962362 -0.0329984 0 0 0 0.10337 -0.112315 -0.0381965 0 -0.000164368 0 0 0 0 0 0 0 0 0 0 0 0 0 0 0 0 0 118 0.002 
1286 1 0.0183778 0.097498 -0.0329186 0 0 0 -0.169214 -0.219895 0.112328 0.00881524 -0.00194736 -0.00192903 2 0 0 1 0 0 0 0 0 0 0 0 0 0 0 0 176 0.002 
2017 1 0.00644855 0.0989234 -0.0330015 0 0 0 -0.0751503 0.0514237 0.019841 0.0103409 -0.000874919 -0.00200155 2 1 0 0 1 0 0 0 0 0 0 0 0 0 0 0 94 0.002 
928 8 0.00299186 0.100908 -0.0329964 0 0 0 -0.0134204 0.00811328 -0.0274658 -0.000188702 0.00387629 -0.000480215 1 0 0 0 1 0 0 1 0 0 0 0 0 0 0 0 206 0.002 
584 9 0.009998 0.10077 -0.0329032 0 0 0 -0.00508588 -0.108729 0.0858452 -7.89684e-05 0.000179235 1.05407e-05 0 0 0 0 0 0 0 0 1 0 0 0 0 0 0 0 186 0.002 
1098 2 0.0162096 0.100846 -0.0329971 0 0 0 0.186784 -0.0519096 0.0416576 -0.00692013 0.00525052 0.00280504 1 0 0 0 0 0 0 0 0 0 0 0 0 0 0 0 151 0.002 
2158 1 0.00657377 0.102957 -0.0329106 0 0 0 0.131349 -0.00665435 0.0591031 0 -0.000164368 0 0 0 0 0 0 0 0 0 0 0 0 0 0 0 0 0 87 0.002 
1768 4 0.0142606 0.104341 -0.0322227 0 0 0 0.0825687 -0.0635093 -0.115656 0 -0.000164368 0 0 0 0 0 0 0 0 0 0 0 0 0 0 0 0 0 136 0.002 
1109 2 0.0182496 0.104401 -0.0326869 0 0 0 0.146105 0.0226875 0.0707681 -7.04567e-06 -0.000153393 -7.52991e-06 0 0 0 0 0 0 0 0 0 0 0 0 0 0 0 0 197 0.002 
1021 3 0.0101486 0.104767 -0.0329464 0 0 0 0.177597 -0.0952534 0.0542222 -0.000833138 -0.00113485 -0.000165291 0 0 1 0 0 0 0 0 1 0 0 0 0 0 0 0 200 0.002 
861 4 0.00303564 0.108003 -0.032925 0 0 0 0.00248418 -0.00453906 0.0211915 -0.00036653 0.000217622 0.00176857 0 0 0 2 0 0 0 0 0 0 0 0 0 0 0 0 175 0.002 
1939 10 0.00718161 0.107838 -0.0326005 0 0 0 0.119987 0.00691196 0.0500616 0 -0.000164368 0 0 0 0 0 0 0 0 0 0 0 0 0 0 0 0 0 115 0.002 
1028 9 0.0125305 0.107971 -0.0327891 0 0 0 0.102335 -0.0110245 -0.0123758 -0.000397973 2.9175e-05 0.000740359 0 0 1 0 0 0 0 0 1 0 0 0 0 0 0 0 198 0.002 
992 1 0.0165212 0.107996 -0.0329911 0 0 0 0.106938 0.0220089 0.013799 0.00131008 0.000268971 -0.000585609 0 0 0 0 0 0 0 0 1 0 0 0 0 0 0 0 182 0.002 
795 3 0.00303926 0.038671 -0.0301596 0 0 0 0.490864 -1.97706 0.92536 0 -0.000164368 0 0 0 0 0 0 0 0 0 0 0 0 0 0 0 0 0 121 0.002 
2157 9 0.00365963 0.0527987 -0.030845 0 0 0 -0.40603 -0.347774 0.426138 0 -0.000164368 0 0 0 0 0 0 0 0 0 0 0 0 0 0 0 0 0 57 0.002 
1962 8 0.0184241 0.077674 -0.00537422 0 0 0 -1.52653 0.163103 -1.34546 0 -0.000164368 0 0 0 0 0 0 0 0 0 0 0 0 0 0 0 0 0 71 0.002 
1701 5 0.00891675 0.0573063 -0.028898 0 0 0 0.247043 -0.111616 0.7281 0 -0.000164368 0 0 0 0 0 0 0 0 0 0 0 0 0 0 0 0 0 75 0.002 
1298 2 0.0121429 0.069491 -0.0309931 0 0 0 0.457132 -0.0928697 -0.155222 0 -0.000164368 0 0 0 0 0 0 0 0 0 0 0 0 0 0 0 0 0 181 0.002 
1512 3 0.00584945 0.0734573 -0.0304357 0 0 0 0.130264 -0.608859 -0.0176128 0 -0.000164368 0 0 0 0 0 0 0 0 0 0 0 0 0 0 0 0 0 110 0.002 
2120 2 0.0126116 0.0734604 -0.0318706 0 0 0 0.771015 -0.0802995 -1.06046 0 -0.000164368 0 0 0 0 0 0 0 0 0 0 0 0 0 0 0 0 0 52 0.002 
2121 6 0.00670021 0.078235 -0.0300271 0 0 0 -0.451633 -0.654497 -0.372446 -0.0214373 -0.000249587 -0.0379064 0 0 0 0 0 0 0 0 0 0 0 0 0 0 0 0 61 0.002 
2419 5 0.00294419 0.0806703 -0.0300963 0 0 0 -0.10607 -0.843143 -2.75736 0.168819 0.0169015 0.0142421 0 0 0 0 1 0 0 0 0 0 0 0 0 0 0 0 7 0.002 
2353 7 0.0161146 0.0797163 -0.030525 0 0 0 0.502605 -0.756154 -0.839341 0 -0.000164368 0 0 0 0 0 0 0 0 0 0 0 0 0 0 0 0 0 2 0.002 
2424 2 0.00594027 0.0834786 -0.029736 0 0 0 -0.224955 -0.110321 -0.269381 0 -0.000164368 0 0 0 0 0 0 0 0 0 0 0 0 0 0 0 0 0 2 0.002 
1038 3 0.0101703 0.082086 -0.0294688 0 0 0 -0.214227 -0.10325 0.00329128 0 -0.000164368 0 0 0 0 0 0 0 0 0 0 0 0 0 0 0 0 0 166 0.002 
911 4 0.00501236 0.0760441 0.0096949 0 0 0 -1.20413 0.127963 -0.801798 0 -0.000164368 0 0 0 0 0 0 0 0 0 0 0 0 0 0 0 0 0 177 0.002 
1027 4 0.00903618 0.0860339 -0.0296893 0 0 0 -0.0778524 -0.158236 0.159886 1.21601e-05 -0.000501157 -0.000798153 0 0 0 0 0 0 0 0 0 0 0 0 0 0 0 0 208 0.002 
2304 4 0.0144444 0.0848022 -0.0299729 0 0 0 -0.0855695 0.0041875 0.264848 0.0661899 -0.120029 0.361076 0 0 0 1 1 0 0 0 0 0 0 0 0 0 0 0 35 0.002 
829 6 0.0134129 0.0888314 -0.0298797 0 0 0 0.0135504 1.18389 -0.0882465 0.000195436 -0.00632385 0.0366968 1 0 0 0 1 2 0 0 0 0 0 0 0 0 0 0 197 0.002 
1871 3 0.00969582 0.090233 -0.0294702 0 0 0 -0.375275 -0.139422 -0.301654 -0.00790145 0.00796095 -0.00355166 0 0 2 0 0 1 0 1 0 0 0 0 0 0 0 0 102 0.002 
1972 7 0.00497334 0.0924534 -0.0295434 0 0 0 0.0884025 -0.166046 -0.0199422 0.000601138 -0.001447 0.00173187 0 0 0 0 0 0 1 0 0 0 0 0 0 0 1 0 121 0.002 
852 2 0.0085073 0.0943245 -0.0293095 0 0 0 0.126043 -0.155881 -0.112681 0 -0.000164368 0 0 0 0 0 0 0 0 0 0 0 0 0 0 0 0 0 120 0.002 
1728 4 0.0165948 0.0956633 -0.0297737 0 0 0 0.226451 0.052839 0.0182943 -0.00422739 -0.00508928 -0.00458322 0 0 0 3 0 0 0 0 0 0 0 0 0 0 0 0 108 0.002 
231 5 0.00994168 0.0980702 -0.0294588 0 0 0 0.131823 -0.0718731 -0.0208545 -0.000435379 0.00200006 -0.000375212 0 0 0 0 1 0 0 0 0 0 0 0 0 0 0 0 244 0.002 
1094 8 0.0138361 0.0983507 -0.0308381 0 0 0 0.187633 -0.085981 0.00416104 -0.00193551 0.00231855 -0.00274999 0 0 0 1 0 0 0 0 0 0 0 0 0 0 0 0 179 0.002 
1560 6 0.00688648 0.100711 -0.0294558 0 0 0 0.05711 -0.127759 0.0691426 -0.000770605 0.00207243 0.0022756 1 0 0 0 0 0 0 0 0 0 0 0 0 0 0 0 148 0.002 
579 5 0.0121994 0.101834 -0.0297231 0 0 0 0.155296 -0.103728 -0.0752286 0 -0.000164368 0 0 0 0 0 0 0 0 0 0 0 0 0 0 0 0 0 42 0.002 
1677 5 0.00299986 0.104435 -0.0311331 0 0 0 -0.00312484 -0.00140302 0.0545878 -0.000732789 1.85524e-05 -0.0010705 0 0 0 1 1 0 0 1 0 0 0 0 0 0 0 0 116 0.002 
1105 4 0.0101406 0.10799 -0.02927 0 0 0 0.0393303 -0.0248002 0.0498265 0 -0.000164368 0 0 0 0 0 0 0 0 0 0 0 0 0 0 0 0 0 159 0.002 
2437 4 0.00321069 0.0614911 -0.0285511 0 0 0 -0.059672 0.441772 -0.0247546 0.00692436 0.00817199 0.000910157 0 0 0 1 0 0 0 0 0 0 0 0 0 0 0 0 1 0.002 
1765 1 0.00561286 0.0645583 -0.0277598 0 0 0 0.370781 0.855522 0.0890974 -0.00692436 -0.00850073 -0.000910157 0 0 0 1 0 0 0 0 0 0 0 0 0 0 0 0 113 0.002 
1897 5 0.0138548 0.0664767 -0.0278851 0 0 0 0.432286 -1.65161 -0.399314 0 -0.000164368 0 0 0 0 0 0 0 0 0 0 0 0 0 0 0 0 0 110 0.002 
350 7 0.00301842 0.0709331 -0.0270432 0 0 0 -0.123219 -0.502533 -0.123218 0 -0.000164368 0 0 0 0 0 0 0 0 0 0 0 0 0 0 0 0 0 78 0.002 
621 4 0.0171756 0.072525 -0.0292907 0 0 0 -0.339788 -1.67237 0.049729 -0.00429708 0.0181494 0.0891016 1 0 0 1 0 0 0 0 0 0 0 0 0 0 0 0 164 0.002 
1267 12 0.00302722 0.0752947 -0.0282752 0 0 0 -0.00314595 -0.622887 -0.0798538 0 -0.000164368 0 0 0 0 0 0 0 0 0 0 0 0 0 0 0 0 0 201 0.002 
883 1 0.0118033 0.0764816 -0.0292231 0 0 0 0.271098 -0.631667 -0.135819 -5.49237e-05 0.000240561 -1.50436e-05 1 0 0 0 0 0 0 0 0 0 0 0 0 0 0 0 192 0.002 
2429 2 0.0186368 0.0769914 -0.0289083 0 0 0 0.468696 -1.22401 -1.7109 0.0586713 -0.164268 -0.526503 0 1 0 0 0 0 0 0 0 0 0 0 0 0 0 0 2 0.002 
981 3 0.00313405 0.0859256 -0.0282152 0 0 0 -0.125546 0.54901 -0.69287 -0.0492077 0.0614469 -0.0641519 0 0 1 0 0 0 0 0 0 0 0 1 0 0 0 0 163 0.002 
1738 1 0.0165474 0.0876548 -0.0272429 0 0 0 0.147351 -0.165377 -0.185424 0.0210237 0.0144979 -0.00247299 0 0 0 0 0 0 0 0 0 0 0 0 0 0 0 0 104 0.002 
1497 6 0.00298528 0.0900921 -0.0269648 0 0 0 -0.0619409 -0.0771522 0.0908335 0.00621918 -0.00708163 -0.000270537 0 0 0 0 0 2 0 0 0 0 0 0 0 0 0 0 96 0.002 
934 1 0.00608426 0.0886504 -0.0290093 0 0 0 -0.42731 -0.35005 -0.0679113 -0.00252739 -0.00143173 0.00387597 0 0 1 0 0 1 1 0 0 0 0 0 0 0 0 0 174 0.002 
521 8 0.0160625 0.0921204 -0.0280175 0 0 0 -0.484942 0.0213376 0.115356 0.0126034 -0.0185391 -1.23905e-05 0 0 0 1 0 0 0 2 0 0 0 0 0 0 0 0 253 0.002 
29 1 0.0124937 0.0947138 -0.029196 0 0 0 0.0835135 -0.0290418 -0.118248 -0.000478026 0.000820886 -0.000560471 2 0 0 0 0 0 0 0 0 0 0 0 0 0 0 0 27 0.002 
2261 2 0.00418044 0.096909 -0.0291505 0 0 0 -0.0769109 -0.0865252 0.0477865 0 -0.000164368 0 0 0 0 0 0 0 0 0 0 0 0 0 0 0 0 0 12 0.002 
1437 2 0.0130007 0.0984656 -0.026912 0 0 0 0.0568184 -0.00424343 0.00553597 -0.000551681 -0.00515049 6.07985e-05 0 2 0 0 1 0 0 0 0 0 0 0 0 0 0 0 135 0.002 
926 4 0.00301825 0.101023 -0.0283912 0 0 0 0.0289761 -0.0725067 0.0600803 0 -0.000164368 0 0 0 0 0 0 0 0 0 0 0 0 0 0 0 0 0 99 0.002 
1600 4 0.0151064 0.101858 -0.026879 0 0 0 0.0219639 -0.108501 0.157332 0.000848825 0.00827916 -0.000691733 0 1 0 0 0 0 0 0 0 0 0 0 0 0 0 0 116 0.002 
308 3 0.00893248 0.104152 -0.029077 0 0 0 0.0894927 -0.10109 0.070612 0.00106212 0.00728685 -0.00463549 0 0 0 0 0 0 0 0 0 0 0 0 0 0 0 0 126 0.002 
2105 6 0.00510988 0.104726 -0.0277565 0 0 0 0.0436665 0.0143232 0.0344294 0.000974933 0.00557476 0.000231126 0 0 0 0 1 2 0 0 0 0 0 0 0 0 0 0 89 0.002 
1729 2 0.0125923 0.105117 -0.0274346 0 0 0 0.0426085 -0.15797 0.0737986 0 -0.000164368 0 0 0 0 0 0 0 0 0 0 0 0 0 0 0 0 0 94 0.002 
1398 2 0.00302487 0.108 -0.028927 0 0 0 6.56912e-05 -0.00582926 0.0586758 -3.99195e-05 3.36547e-05 -0.000665578 0 0 0 1 0 0 0 0 0 0 0 0 0 0 0 0 142 0.002 
220 2 0.0153205 0.107954 -0.028268 0 0 0 0.0157612 -0.00677664 0.119233 0 -0.000164368 0 0 0 0 0 0 0 0 0 0 0 0 0 0 0 0 0 191 0.002 
1341 3 0.0148443 0.0324375 -0.025506 0 0 0 0.815239 -2.39198 0.0188943 0 -0.000164368 0 0 0 0 0 0 0 0 0 0 0 0 0 0 0 0 0 162 0.002 
13 6 0.00508577 0.0374641 -0.0252897 0 0 0 -0.482312 -2.04623 -0.445772 0 -0.000164368 0 0 0 0 0 0 0 0 0 0 0 0 0 0 0 0 0 59 0.002 
1433 7 0.00832392 0.0559334 -0.0244476 0 0 0 0.491519 -0.321617 0.337083 0 -0.000164368 0 0 0 0 0 0 0 0 0 0 0 0 0 0 0 0 0 189 0.002 
1999 1 0.0106588 0.0690748 -0.0257404 0 0 0 -0.544768 -0.669804 -0.339625 0 -0.000164368 0 0 0 0 0 0 0 0 0 0 0 0 0 0 0 0 0 47 0.002 
1531 8 0.0164115 0.0695245 -0.0267807 0 0 0 0.838748 -1.57566 0.608226 -0.00157845 -0.00309039 0.00689898 0 0 0 1 0 0 0 0 0 0 0 0 0 0 0 0 150 0.002 
1551 4 0.00721025 0.072183 -0.02511 0 0 0 0.489063 -0.897491 -0.235676 0 -0.000164368 0 0 0 0 0 0 0 0 0 0 0 0 0 0 0 0 0 159 0.002 
1522 1 0.00660272 0.0761423 -0.0265972 0 0 0 0.266953 -1.04106 -0.420482 0 -0.000164368 0 0 0 0 0 0 0 0 0 0 0 0 0 0 0 0 0 156 0.002 
1941 1 0.0104712 0.0754112 -0.0252533 0 0 0 0.342752 -0.558756 0.272088 0 -0.000164368 0 0 0 0 0 0 0 0 0 0 0 0 0 0 0 0 0 51 0.002 
1630 7 0.0124419 0.0789277 -0.0261234 0 0 0 0.32998 -0.815514 0.0192362 5.49237e-05 -0.000569297 1.50436e-05 1 0 0 0 0 0 0 0 0 0 0 0 0 0 0 0 96 0.002 
86 2 0.00319349 0.0812014 -0.0262453 0 0 0 -0.182273 -0.303449 -1.64065 0.0283327 -0.0569932 0.0499719 0 1 0 0 1 0 0 0 0 0 0 0 0 0 0 0 139 0.002 
622 6 0.00798521 0.079935 -0.0266828 0 0 0 -0.195166 -0.834721 -0.446974 0.0214373 -7.91491e-05 0.0379064 0 0 0 0 0 0 0 0 0 0 0 0 0 0 0 0 252 0.002 
1971 8 0.0145336 0.0828364 -0.0265962 0 0 0 -2.06077 1.52496 0.621747 0.0393033 -0.105538 0.159104 0 0 0 1 0 0 0 0 0 0 0 0 0 0 0 0 75 0.002 
889 3 0.00800589 0.0841796 -0.025457 0 0 0 -0.379492 0.132396 -0.979965 0.205263 0.144525 -0.166074 0 0 2 0 0 0 0 0 0 0 0 0 0 0 0 0 204 0.002 
511 2 0.00581156 0.0886499 -0.0245636 0 0 0 -0.0944363 0.0744077 0.237951 0.0195968 -0.00514492 0.00297802 0 1 0 0 0 1 0 0 0 0 0 0 0 0 0 0 127 0.002 
1008 1 0.0127184 0.086811 -0.0265922 0 0 0 -0.112106 1.12575 -0.171842 -0.00184723 -0.032821 -0.0354556 1 0 0 0 0 1 0 0 0 0 0 0 0 0 0 0 201 0.002 
1089 2 0.0075726 0.0917598 -0.0263737 0 0 0 -0.106561 -0.0340148 0.000895638 0 -0.000164368 0 0 0 0 0 0 0 0 0 0 0 0 0 0 0 0 0 211 0.002 
993 7 0.012305 0.091534 -0.026786 0 0 0 -0.626349 0.118792 0.0749488 0.0195358 0.0219036 -0.0105949 1 0 1 0 0 0 2 1 0 0 0 0 0 0 0 0 182 0.002 
368 5 0.00301724 0.0943955 -0.0262642 0 0 0 0.0135405 -0.109591 0.0531672 0.000207768 -0.000119728 -0.000476648 0 0 0 0 1 0 0 0 0 0 0 0 0 0 0 0 23 0.002 
1791 6 0.0144356 0.0949473 -0.0257145 0 0 0 0.0534617 -0.14875 -0.000918236 -0.0169995 0.0135279 0.00393041 1 1 0 0 0 1 0 1 0 0 0 0 0 0 0 0 122 0.002 
1324 3 0.0183272 0.0943744 -0.025047 0 0 0 0.0608183 -0.298222 -0.0970372 -0.00056232 0.00277796 0.0193051 0 0 3 0 0 1 0 0 0 0 0 0 0 0 0 0 177 0.002 
1386 1 0.0102488 0.0956006 -0.0257861 0 0 0 0.0206367 -0.0619283 0.0929461 0 -0.000164368 0 0 0 0 0 0 0 0 0 0 0 0 0 0 0 0 0 136 0.002 
175 3 0.00307256 0.0983161 -0.0254089 0 0 0 -0.0177459 -0.0582408 0.0863792 0.000381668 -0.000147144 -0.000333189 0 0 1 0 0 0 0 0 0 0 0 0 0 0 0 0 177 0.002 
851 1 0.00691963 0.098027 -0.0264575 0 0 0 -0.00921115 -0.00697148 -0.0275597 -0.000758426 0.00094802 -0.000139933 1 0 1 0 0 0 0 0 0 0 0 0 0 0 0 0 193 0.002 
2412 2 0.0170673 0.0978666 -0.0264833 0 0 0 0.0963226 -0.0214779 0.0800199 -0.000549687 0.00548572 0.00296139 0 0 1 1 0 0 0 0 0 0 0 0 0 0 0 0 7 0.002 
150 4 0.0059142 0.101719 -0.0252627 0 0 0 0.0321295 -0.0216783 0.0640267 0.00034476 -0.00408423 0.00273695 0 0 0 0 0 1 0 0 0 0 0 0 0 0 0 0 161 0.002 
1053 4 0.00971224 0.101051 -0.0265972 0 0 0 0.151085 -0.0797784 0.0244019 0 -0.000164368 0 0 0 0 0 0 0 0 0 0 0 0 0 0 0 0 0 150 0.002 
653 2 0.00300446 0.106635 -0.0249437 0 0 0 0.0185436 0.0291647 0.020987 6.93764e-06 -0.000104803 7.55572e-05 0 1 0 0 0 1 0 0 0 0 0 0 0 0 0 0 190 0.002 
2001 3 0.00884879 0.104682 -0.0251135 0 0 0 0.103612 -0.0660648 -0.125545 -0.00106212 -0.00761559 0.00463549 0 0 0 0 0 0 0 0 0 0 0 0 0 0 0 0 96 0.002 
2384 7 0.0176497 0.105021 -0.0265139 0 0 0 0.0698497 -0.035394 0.131319 -0.000737901 4.76218e-05 2.61694e-05 0 0 0 0 0 0 1 0 0 0 0 0 0 0 0 0 28 0.002 
845 2 0.00715564 0.107996 -0.026602 0 0 0 -0.00842327 -0.0198791 0.0192786 0 -0.000164368 0 0 0 0 0 0 0 0 0 0 0 0 0 0 0 0 0 211 0.002 
2024 1 0.011724 0.107916 -0.0246788 0 0 0 0.195982 -0.0223466 0.0307646 -0.00173178 -0.000590549 -0.000978933 1 0 0 0 0 0 0 0 0 0 0 0 0 0 0 0 51 0.002 
447 4 0.0124655 0.057634 -0.0231757 0 0 0 0.599804 0.298844 1.45269 0 -0.000164368 0 0 0 0 0 0 0 0 0 0 0 0 0 0 0 0 0 210 0.002 
336 1 0.0143653 0.0620255 -0.0241231 0 0 0 1.74051 -2.03549 0.424956 0 -0.000164368 0 0 0 0 0 0 0 0 0 0 0 0 0 0 0 0 0 190 0.002 
627 2 0.00628351 0.0683056 -0.0241627 0 0 0 -0.264355 -1.32331 -1.32275 0 -0.000164368 0 0 0 0 0 0 0 0 0 0 0 0 0 0 0 0 0 144 0.002 
2311 6 0.00335077 0.0767549 -0.0240599 0 0 0 0.153968 -0.516368 -0.641922 0 -0.000164368 0 0 0 0 0 0 0 0 0 0 0 0 0 0 0 0 0 21 0.002 
541 9 0.0102144 0.0813998 -0.023684 0 0 0 -0.418933 -0.209218 -0.257391 -0.0161106 0.00490581 -0.00931242 0 0 1 0 0 0 0 0 1 0 0 0 0 0 0 0 265 0.002 
298 5 0.0052295 0.0826463 -0.0232205 0 0 0 0.161031 0.741368 -1.43953 -0.199618 -0.118746 0.14042 0 1 1 0 3 0 0 0 0 0 0 0 0 0 0 0 183 0.002 
1582 1 0.00303513 0.0856899 -0.0243058 0 0 0 -0.771054 1.52067 -0.819279 -0.0237003 -0.0119518 0.101487 0 0 1 0 1 0 0 0 0 0 0 0 0 0 0 0 112 0.002 
2203 2 0.0116925 0.085574 -0.0230427 0 0 0 -0.19933 -0.0520169 -0.180006 -0.0456583 -0.0419482 0.0928733 1 2 0 0 0 0 0 0 0 0 0 0 0 0 0 0 35 0.002 
427 7 0.015221 0.0873231 -0.0234241 0 0 0 0.285806 -0.144857 -0.248767 -0.0732945 -0.0452851 0.0174883 0 1 0 0 0 0 2 0 0 0 0 0 0 0 0 0 250 0.002 
657 6 0.00301915 0.0909863 -0.022943 0 0 0 -0.0708684 0.178434 0.0501786 -0.00384265 -0.000190367 0.00142709 0 1 0 0 0 1 0 0 0 0 0 0 0 0 0 0 22 0.002 
1035 2 0.00932173 0.0888016 -0.0226247 0 0 0 0.267657 0.612511 0.653793 0.0640179 0.0613908 -0.0108309 0 3 0 0 0 0 0 0 0 0 0 0 0 0 0 0 200 0.002 
1205 1 0.0111659 0.0922569 -0.0230531 0 0 0 0.0584528 0.0325436 0.297118 0.0520743 0.0463567 -0.0429901 1 1 0 0 0 0 1 0 0 0 0 0 0 0 0 0 182 0.002 
195 6 0.0152556 0.0913738 -0.0241218 0 0 0 -0.28532 -0.419304 -0.346669 0.0189965 -0.00129859 0.00527736 0 0 0 0 0 0 1 0 0 0 0 0 0 0 0 0 22 0.002 
727 6 0.00299949 0.0949497 -0.0223046 0 0 0 0.0115887 0.143387 0.0149729 -0.000580486 -0.000386499 0.000460799 0 0 0 0 1 1 0 0 0 0 0 0 0 0 0 0 194 0.002 
2294 5 0.00673347 0.0950017 -0.0238548 0 0 0 -0.0695031 0.0673394 0.0857869 0.000376758 -0.00129398 0.000473122 1 0 0 0 0 0 0 0 0 0 0 0 0 0 0 0 15 0.002 
2413 2 0.0060907 0.0987847 -0.0224763 0 0 0 -0.021405 0.166655 0.108084 0.000882553 -0.000134494 0.000219445 0 2 0 0 0 0 0 0 0 0 0 0 0 0 0 0 12 0.002 
214 6 0.0100128 0.0988336 -0.0232367 0 0 0 -0.0345488 -0.0308926 0.0927106 0.00191377 0.000143364 -0.0014303 0 1 0 0 0 0 0 0 0 0 0 0 0 0 0 0 119 0.002 
136 1 0.0142361 0.099023 -0.0231405 0 0 0 -0.0366633 -0.17062 0.127549 0 -0.000164368 0 0 0 0 0 0 0 0 0 0 0 0 0 0 0 0 0 14 0.002 
659 6 0.00302117 0.10186 -0.0224926 0 0 0 0.0323678 -0.0388615 -0.0131011 0 -0.000164368 0 0 0 0 0 0 0 0 0 0 0 0 0 0 0 0 0 45 0.002 
1500 2 0.0180597 0.101869 -0.0240786 0 0 0 0.116451 -0.0502348 0.0911642 -0.0014591 0.0044924 -0.00752325 0 2 0 0 0 0 0 0 0 0 0 0 0 0 0 0 147 0.002 
2388 2 0.0119855 0.102337 -0.0235599 0 0 0 0.0482448 -0.0180157 0.0808674 0 -0.000164368 0 0 0 0 0 0 0 0 0 0 0 0 0 0 0 0 0 12 0.002 
1634 3 0.0152719 0.104626 -0.0233027 0 0 0 0.0993804 -0.0962708 0.187021 -0.000952831 1.71813e-06 -0.000126972 0 1 0 0 0 0 0 0 0 0 0 0 0 0 0 0 104 0.002 
465 6 0.00817299 0.107962 -0.0226713 0 0 0 0.146068 -0.0452381 -0.00969294 0 -0.000164368 0 0 0 0 0 0 0 0 0 0 0 0 0 0 0 0 0 162 0.002 
2403 3 0.0174807 0.107924 -0.0237534 0 0 0 -0.00237686 -0.0278227 0.0135393 -0.000880914 0.00115656 4.41998e-05 0 0 1 0 0 0 0 0 0 0 0 0 0 0 0 0 19 0.002 
2461 12 0.00493719 0.0290145 -0.0220243 0 0 0 0.160268 -1.88664 0.448642 0 -0.000164368 0 0 0 0 0 0 0 0 0 0 0 0 0 0 0 0 0 0 0.002 
701 1 0.00678745 0.0751997 -0.0222549 0 0 0 -0.154921 -0.477223 -0.334191 0 -0.000164368 0 0 0 0 0 0 0 0 0 0 0 0 0 0 0 0 0 220 0.002 
1211 7 0.0179759 0.0796359 -0.0261579 0 0 0 0.176799 -3.15848 -4.13034 -0.281058 0.260139 0.492588 0 1 0 0 0 0 0 0 0 0 0 0 0 0 0 0 170 0.002 
1945 2 0.0136298 0.0821699 -0.0218095 0 0 0 -0.953043 0.370896 0.831018 0.016478 -0.00538625 0.00948247 0 0 0 0 0 0 0 0 1 0 0 0 0 0 0 0 84 0.002 
2000 3 0.00690066 0.0858884 -0.0217725 0 0 0 -0.353159 0.873482 -0.429898 -0.0401078 -0.135598 0.0925703 0 1 0 0 1 0 0 0 0 0 0 0 0 0 0 0 74 0.002 
1751 1 0.00336996 0.0875887 -0.0207374 0 0 0 0.174254 0.00816576 -0.0286196 0 -0.000164368 0 0 0 0 0 0 0 0 0 0 0 0 0 0 0 0 0 84 0.002 
524 8 0.0137939 0.0906236 -0.0204723 0 0 0 0.103649 0.100172 0.0232204 -7.20181e-05 -0.000202956 0.000448976 0 0 0 0 0 0 0 1 0 0 0 0 0 0 0 0 213 0.002 
1706 6 0.00677079 0.0916763 -0.0216208 0 0 0 -0.162051 0.23735 0.278571 -0.0079643 0.0316501 0.00958819 0 1 0 0 0 0 0 0 0 0 0 0 0 0 0 0 97 0.002 
1710 6 0.00991994 0.0954456 -0.0210743 0 0 0 -0.046577 0.0789878 0.333468 0.00328937 -0.00744657 -0.00753538 1 0 0 0 0 2 0 0 0 0 0 0 0 0 0 0 106 0.002 
763 5 0.0139424 0.0950471 -0.0215341 0 0 0 0.107738 0.00408005 -0.0373106 0 -0.000164368 0 0 0 0 0 0 0 0 0 0 0 0 0 0 0 0 0 182 0.002 
184 2 0.00299565 0.0982273 -0.0200157 0 0 0 0.00894547 0.0908129 0.12722 9.72374e-05 -0.000739903 -0.00121358 0 1 0 0 0 1 0 0 0 0 0 0 0 0 0 0 179 0.002 
2325 10 0.0186732 0.0984308 -0.0221496 0 0 0 -0.0843448 -0.0416722 0.0394767 -0.00189215 0.00366601 0.00278151 0 1 0 0 0 0 0 0 0 1 0 0 0 0 0 0 30 0.002 
2436 2 0.0156689 0.101756 -0.0204913 0 0 0 0.0919402 -0.199879 0.171401 0 -0.000164368 0 0 0 0 0 0 0 0 0 0 0 0 0 0 0 0 0 5 0.002 
793 3 0.00903032 0.10265 -0.0206615 0 0 0 0.142188 -0.17525 0.0288294 0 -0.000164368 0 0 0 0 0 0 0 0 0 0 0 0 0 0 0 0 0 194 0.002 
1801 7 0.012555 0.104492 -0.0202304 0 0 0 0.000616082 -0.0932204 0.142266 -0.00966674 -0.00454041 -0.00237114 0 0 0 0 0 0 0 0 0 0 0 0 0 0 0 0 94 0.002 
2297 9 0.00590523 0.104649 -0.0222579 0 0 0 0.138949 -0.103119 -0.0295929 0 -0.000164368 0 0 0 0 0 0 0 0 0 0 0 0 0 0 0 0 0 25 0.002 
2092 7 0.00299953 0.107999 -0.0211848 0 0 0 0.00505755 -0.0069522 0.0477402 5.24405e-05 -0.000210671 -0.000281082 0 1 0 0 0 0 1 0 0 0 0 0 0 0 0 0 73 0.002 
1530 6 0.0140813 0.107989 -0.0214535 0 0 0 0.0495938 -0.022225 0.129265 0.00173178 0.000261813 0.000978933 1 0 0 0 0 0 0 0 0 0 0 0 0 0 0 0 113 0.002 
1643 5 0.00324448 0.080378 -0.0206777 0 0 0 1.48605 -0.919105 -2.03551 -0.0395248 -0.0874443 0.0545548 0 0 0 0 1 0 0 0 0 0 0 0 0 0 0 0 124 0.002 
1588 8 0.00986608 0.0836386 -0.0201509 0 0 0 -0.756276 0.162477 0.782516 -0.0108658 -0.013285 0.0430211 0 1 0 0 0 0 0 0 0 0 0 0 0 0 0 0 74 0.002 
954 5 0.00468626 0.08446 -0.0184984 0 0 0 -0.186421 0.0993861 0.128652 0 -0.000164368 0 0 0 0 0 0 0 0 0 0 0 0 0 0 0 0 0 41 0.002 
1325 2 0.0142365 0.0865657 -0.0196547 0 0 0 -0.407352 -0.678084 -0.474797 -0.0111314 -0.0177177 0.0222178 0 0 0 0 0 0 1 0 0 0 0 0 0 0 0 0 174 0.002 
1845 7 0.00974548 0.0886419 -0.0186185 0 0 0 0.422318 1.40579 -1.25737 0.0234547 0.260785 -0.246076 0 0 0 0 0 0 1 0 0 0 0 0 0 0 0 0 94 0.002 
1218 1 0.0183677 0.0901418 -0.0177617 0 0 0 -0.192343 0.0334289 0.310309 -0.00399045 -0.00752897 -0.00525034 1 0 0 0 0 0 0 0 0 0 0 0 0 0 0 0 105 0.002 
1619 4 0.00304226 0.0913798 -0.0189779 0 0 0 0.0569723 0.0843358 0.111106 -0.00424946 0.00236996 0.00681605 0 0 0 1 0 1 0 0 0 0 0 0 0 0 0 0 168 0.002 
2426 5 0.0109906 0.0924368 -0.0182734 0 0 0 0.0631823 -0.0757946 0.172401 -0.000147052 0.000940848 -0.000381416 0 0 0 0 1 0 0 1 0 0 0 0 0 0 0 0 9 0.002 
2399 3 0.0171502 0.0933498 -0.0198313 0 0 0 -0.0586226 0.143933 0.234865 0 -0.000164368 0 0 0 0 0 0 0 0 0 0 0 0 0 0 0 0 0 7 0.002 
1284 1 0.00612271 0.0956205 -0.0198822 0 0 0 -0.105864 0.152011 0.125126 -0.0110751 0.00222011 0.00313372 0 0 0 0 0 1 0 0 0 0 0 0 0 0 0 0 182 0.002 
1317 6 0.0123415 0.0971462 -0.0184215 0 0 0 -0.014782 0.141648 0.242597 -0.0486369 0.0416989 -0.0347079 0 0 0 0 0 4 0 0 0 0 0 0 0 0 0 0 23 0.002 
1365 1 0.0162471 0.0973755 -0.0191288 0 0 0 -0.20458 0.392317 0.275659 0.0454675 0.0909141 -0.0446442 3 0 0 0 0 1 0 0 0 0 0 0 0 0 0 0 181 0.002 
1290 3 0.00867644 0.0988328 -0.0194268 0 0 0 -0.103208 0.212508 0.153609 0.00127931 -0.0066218 -0.0114284 0 1 3 0 0 1 0 0 0 0 0 0 0 0 0 0 116 0.002 
177 6 0.00550797 0.101266 -0.0193558 0 0 0 0.0357958 0.0926001 0.094953 -0.00111453 0.012182 0.00313595 0 1 1 0 0 0 0 0 0 0 0 0 0 0 0 0 246 0.002 
1072 1 0.0118012 0.101101 -0.0182174 0 0 0 0.109227 -0.0622199 0.0557095 -0.00393693 0.0125444 0.0131166 1 0 0 0 0 1 0 0 0 0 0 0 0 0 0 0 182 0.002 
373 6 0.00303845 0.10449 -0.0192011 0 0 0 0.0290174 0.0169815 0.0424517 0 -0.000164368 0 0 0 0 0 0 0 0 0 0 0 0 0 0 0 0 0 207 0.002 
2064 6 0.00664586 0.106705 -0.0188988 0 0 0 0.0364036 -0.00470612 -0.0392705 0 -0.000164368 0 0 0 0 0 0 0 0 0 0 0 0 0 0 0 0 0 70 0.002 
1388 7 0.0160701 0.105635 -0.0187384 0 0 0 -0.0624743 -0.0473101 0.167759 0.00427965 0.0011567 -0.00146441 0 0 0 0 0 0 1 0 0 0 0 0 0 0 0 0 197 0.002 
1178 14 0.010426 0.107995 -0.0193561 0 0 0 0.0288764 -0.0128606 0.0888613 0 -0.000164368 0 0 0 0 0 0 0 0 0 0 0 0 0 0 0 0 0 162 0.002 
392 3 0.00721671 0.080643 -0.0204318 0 0 0 1.07894 -2.22346 -3.70969 0.0419778 0.0107048 0.00768195 0 0 0 0 2 0 0 0 0 0 0 0 0 0 0 0 124 0.002 
2288 2 0.0111152 0.0856413 -0.0166544 0 0 0 -1.17484 1.12048 0.291528 -0.0234547 -0.261114 0.246076 0 0 0 0 0 0 1 0 0 0 0 0 0 0 0 0 16 0.002 
783 3 0.00581422 0.0883573 -0.0174505 0 0 0 0.00369642 0.0425193 0.0383382 0 -0.000164368 0 0 0 0 0 0 0 0 0 0 0 0 0 0 0 0 0 184 0.002 
1095 4 0.00666277 0.0923383 -0.0175512 0 0 0 -0.0488026 -0.0205554 0.104629 -0.00576338 -0.00938921 -0.00327487 0 0 0 1 0 0 0 0 0 0 0 0 0 0 0 0 178 0.002 
2115 7 0.0146093 0.0913704 -0.0160464 0 0 0 0.58015 0.680394 -0.043638 -0.000449398 -0.0677032 0.000592386 0 0 0 0 0 0 3 0 0 0 0 0 0 0 0 0 49 0.002 
837 12 0.00305118 0.0950424 -0.017377 0 0 0 0.00600311 0.0622781 0.130094 1.21129e-05 0.000683163 0.00101624 0 0 0 1 0 0 0 0 0 0 0 0 0 0 0 0 240 0.002 
2268 3 0.0149207 0.0952796 -0.0160404 0 0 0 0.471098 1.36556 -0.122292 -0.0165926 -0.146705 0.0271685 1 0 1 0 0 1 1 0 0 0 0 0 0 0 0 0 57 0.002 
1354 1 0.00889706 0.0955814 -0.0169653 0 0 0 0.0276813 -0.00957517 0.1181 0.00756214 0.00514714 0.00254314 1 0 0 1 1 0 0 0 0 0 0 0 0 0 0 0 25 0.002 