ITEM: TIMESTEP
19050000
ITEM: NUMBER OF ATOMS
16134
ITEM: BOX BOUNDS ff ff ff
-0.01 0.45
-0.15 0.15
-0.08 0.1
ITEM: ATOMS id type x y z ix iy iz vx vy vz fx fy fz c_cc_1 c_cc_2 c_cc_3 c_cc_4 c_cc_5 c_cc_6 c_cc_7 c_cc_8 c_cc_9 c_cc_10 c_cc_11 c_cc_12 c_cc_13 c_cc_14 c_cc_15 c_cc_16 f_fppacc radius 
975 4 0.00603962 -0.0394218 -0.0463434 0 0 0 -2.85854e-07 1.4398e-12 1.9066e-12 -1.07762e-20 0 0 0 0 0 0 0 0 0 0 0 0 0 0 0 0 0 0 8 0.001 
1823 2 0.00890005 -0.0380783 -0.047358 0 0 0 1.71564e-06 -6.79323e-13 -8.99567e-13 9.82435e-19 0 0 0 0 0 0 0 0 0 0 0 0 0 0 0 0 0 0 35 0.001 
5768 7 0.0145626 -0.0431215 -0.0428571 0 0 0 -2.43181e-07 8.51946e-13 7.76651e-13 2.57337e-18 0 0 0 0 0 0 0 0 0 0 0 0 0 0 0 0 0 0 18 0.001 
18264 3 0.0177993 -0.0431927 -0.042779 0 0 0 -7.44844e-08 -4.20225e-13 -3.83087e-13 9.92197e-22 0 0 0 0 0 0 0 0 0 0 0 0 0 0 0 0 0 0 0 0.001 
7504 5 0.011343 -0.0438649 -0.0420416 0 0 0 -1.12169e-07 9.73807e-13 8.87744e-13 1.28947e-18 0 0 0 0 0 0 0 0 0 0 0 0 0 0 0 0 0 0 192 0.001 
1829 3 0.00903382 -0.0446166 -0.041217 0 0 0 1.36237e-06 1.38555e-12 1.2631e-12 1.86262e-19 0 0 0 0 0 0 0 0 0 0 0 0 0 0 0 0 0 0 58 0.001 
6851 6 0.0128214 -0.0448049 -0.0410104 0 0 0 8.61625e-08 9.13957e-13 8.33182e-13 1.48515e-21 0 0 0 0 0 0 0 0 0 0 0 0 0 0 0 0 0 0 211 0.001 
15128 3 0.0169526 -0.0465844 -0.0390585 0 0 0 4.21156e-07 8.30124e-13 7.56759e-13 4.98968e-19 0 0 0 0 0 0 0 0 0 0 0 0 0 0 0 0 0 0 0 0.001 
10708 2 0.00161702 -0.0485544 -0.0368974 0 0 0 4.58226e-07 5.41226e-13 4.93395e-13 -1.26657e-22 0 0 0 0 0 0 0 0 0 0 0 0 0 0 0 0 0 0 15 0.001 
9590 4 0.00734397 -0.0494745 -0.0354761 0 0 0 -3.67464e-07 -3.46677e-14 -2.14664e-14 -1.27887e-18 0 0 0 0 0 0 0 0 0 0 0 0 0 0 0 0 0 0 131 0.001 
3743 6 0.0112666 -0.0496186 -0.0352434 0 0 0 -6.49193e-06 -2.31445e-12 -1.43305e-12 1.67829e-19 0 0 0 0 0 0 0 0 0 0 0 0 0 0 0 0 0 0 19 0.001 
3460 1 0.0130746 -0.048572 -0.0328733 0 0 0 0.766333 0.270962 1.21245 0 -2.0546e-05 0 0 0 0 0 0 0 0 0 0 0 0 0 0 0 0 0 240 0.001 
1671 3 0.000508577 -0.0447341 -0.0318414 0 0 0 -4.7307e-14 1.63937e-07 -7.80002e-08 4.44089e-16 -2.62723e-08 1.25002e-08 0 0 1 0 0 0 0 0 0 0 0 0 0 0 0 0 215 0.001 
331 4 0.000491423 -0.0440772 -0.0304606 0 0 0 8.476e-15 -1.63937e-07 7.80002e-08 -8.88178e-16 2.62723e-08 -1.25002e-08 0 0 1 0 0 0 0 0 0 0 0 0 0 0 0 0 103 0.001 
15244 8 0.00458962 -0.0397186 -0.0277202 0 0 0 2.9919 5.8233 6.39948 0 -2.0546e-05 0 0 0 0 0 0 0 0 0 0 0 0 0 0 0 0 0 80 0.001 
3581 8 0.00849066 -0.0532172 -0.0294313 0 0 0 -2.13919e-06 -1.11557e-12 -6.90735e-13 -1.03474e-17 0 0 0 0 0 0 0 0 0 0 0 0 0 0 0 0 0 0 93 0.001 
639 1 0.000498061 -0.0427477 -0.0287265 0 0 0 -2.5088e-14 -1.53293e-15 7.22588e-16 0 0 2.77556e-17 1 0 0 0 0 0 0 0 0 0 0 0 0 0 0 0 190 0.001 
10070 4 0.00317528 -0.0536359 -0.021862 0 0 0 4.09193 -2.26036 10.2051 0 -2.0546e-05 0 0 0 0 0 0 0 0 0 0 0 0 0 0 0 0 0 162 0.001 
9270 7 0.000501939 -0.0416389 -0.0274076 0 0 0 -2.48827e-14 2.19155e-15 -3.69496e-16 0 0 -5.55112e-17 1 0 0 0 0 0 0 0 0 0 0 0 0 0 0 0 192 0.001 
17363 12 0.0180517 -0.0555751 -0.0246858 0 0 0 1.27595e-06 4.38058e-12 1.69705e-12 -5.27008e-19 0 0 0 0 0 0 0 0 0 0 0 0 0 0 0 0 0 0 0 0.001 
18695 3 0.00651092 -0.0558355 -0.0159891 0 0 0 0.0294031 -4.81141 11.9127 0 -2.0546e-05 0 0 0 0 0 0 0 0 0 0 0 0 0 0 0 0 0 1 0.001 
1205 8 0.0100473 -0.0483502 -0.0155796 0 0 0 2.13913 -2.98009 12.7251 0 -2.0546e-05 0 0 0 0 0 0 0 0 0 0 0 0 0 0 0 0 0 290 0.001 
17735 4 0.0147 -0.0577945 -0.0189569 0 0 0 -2.74783e-08 -1.87891e-12 -7.27895e-13 -1.7822e-20 0 0 0 0 0 0 0 0 0 0 0 0 0 0 0 0 0 0 0 0.001 
1379 8 0.0182891 -0.0594667 -0.0124386 0 0 0 -2.16895e-07 1.66393e-12 3.11042e-13 3.36153e-20 0 0 0 0 0 0 0 0 0 0 0 0 0 0 0 0 0 0 0 0.001 
12818 4 0.0153037 -0.0568894 -0.00958235 0 0 0 0.459644 0.862136 3.72993 0 -2.0546e-05 0 0 0 0 0 0 0 0 0 0 0 0 0 0 0 0 0 95 0.001 
11065 6 0.0138571 -0.0597464 -0.0109424 0 0 0 6.1709e-07 -2.86934e-12 -5.36373e-13 2.54828e-18 0 0 0 0 0 0 0 0 0 0 0 0 0 0 0 0 0 0 0 0.001 
18233 12 0.017517 -0.059928 -0.00997119 0 0 0 -1.34331e-07 -6.88162e-13 -1.28639e-13 5.81227e-20 0 0 0 0 0 0 0 0 0 0 0 0 0 0 0 0 0 0 0 0.001 
6389 2 0.00200144 -0.0465377 0.00181673 0 0 0 0.0050244 -0.355247 0.746173 0 -2.0546e-05 0 0 0 0 0 0 0 0 0 0 0 0 0 0 0 0 0 202 0.001 
17166 7 0.0174454 -0.0601933 0.00855173 0 0 0 -3.46889e-05 -2.64052e-05 -4.47829e-05 1.30339e-07 2.18436e-06 -2.00433e-07 0 0 0 0 0 0 0 0 0 0 0 0 0 0 0 0 0 0.001 
18631 4 0.0146308 -0.050568 0.0146604 0 0 0 1.27783 0.253859 4.04014 0 -2.0546e-05 0 0 0 0 0 0 0 0 0 0 0 0 0 0 0 0 0 1 0.001 
15988 4 0.0024829 -0.042703 0.0392478 0 0 0 5.54874 23.4489 18.6231 0 -2.0546e-05 0 0 0 0 0 0 0 0 0 0 0 0 0 0 0 0 0 79 0.001 
12845 4 0.00228731 -0.0497509 0.0310016 0 0 0 0.0614291 3.55566 5.18472 0 -2.0546e-05 0 0 0 0 0 0 0 0 0 0 0 0 0 0 0 0 0 123 0.001 
10780 3 0.0145435 -0.0530892 0.0296382 0 0 0 9.82078e-07 -2.08711e-12 1.29228e-12 -7.58248e-20 0 0 0 0 0 0 0 0 0 0 0 0 0 0 0 0 0 0 64 0.001 
4319 5 0.0185839 -0.0512242 0.0326502 0 0 0 1.2133e-06 -3.04097e-13 1.8829e-13 -2.54595e-19 0 0 0 0 0 0 0 0 0 0 0 0 0 0 0 0 0 0 8 0.001 
7830 2 0.0115084 -0.0497351 0.0350551 0 0 0 -3.96609e-07 -1.37938e-12 8.54077e-13 6.22702e-23 0 0 0 0 0 0 0 0 0 0 0 0 0 0 0 0 0 0 54 0.001 
18731 4 0.0142504 -0.0561743 0.0171404 0 0 0 -7.17288 6.23003 25.7292 0 -2.0546e-05 0 0 0 0 0 0 0 0 0 0 0 0 0 0 0 0 0 0 0.001 
14769 5 0.00287462 -0.0104061 -0.0600357 0 0 0 -1.35065e-07 3.09526e-13 3.34033e-12 -1.617e-19 0 0 0 0 0 0 0 0 0 0 0 0 0 0 0 0 0 0 73 0.001 
15040 1 0.0112189 -0.0072435 -0.0603288 0 0 0 -1.20856e-06 1.98295e-13 2.13994e-12 1.62392e-20 0 0 0 0 0 0 0 0 0 0 0 0 0 0 0 0 0 0 0 0.001 
7242 3 0.0161218 -0.00607762 -0.0604368 0 0 0 -7.17236e-07 4.57969e-13 4.94229e-12 -1.65061e-21 0 0 0 0 0 0 0 0 0 0 0 0 0 0 0 0 0 0 30 0.001 
1970 1 0.0177175 -0.0038298 -0.0606451 0 0 0 -8.79187e-07 1.73183e-13 1.86893e-12 1.53857e-20 0 0 0 0 0 0 0 0 0 0 0 0 0 0 0 0 0 0 46 0.001 
845 1 0.00483143 -0.00291029 -0.0607303 0 0 0 -4.11091e-07 4.03041e-13 4.34952e-12 -1.92984e-22 0 0 0 0 0 0 0 0 0 0 0 0 0 0 0 0 0 0 0 0.001 
1507 2 0.00104789 -0.0114197 -0.0599013 0 0 0 -2.15707e-07 4.65672e-13 1.63666e-12 -9.45329e-23 0 0 0 0 0 0 0 0 0 0 0 0 0 0 0 0 0 0 2 0.001 
17306 2 0.0180681 -0.0175513 -0.0559328 0 0 0 1.32328 -17.6104 5.97036 0 -2.0546e-05 0 0 0 0 0 0 0 0 0 0 0 0 0 0 0 0 0 3 0.001 
10525 5 0.00151888 -0.0218574 -0.0569315 0 0 0 2.337e-06 3.60005e-13 1.26528e-12 5.3721e-20 0 0 0 0 0 0 0 0 0 0 0 0 0 0 0 0 0 0 0 0.001 
12480 4 0.0134919 -0.0200818 -0.0574368 0 0 0 1.0621e-06 -1.42352e-13 -5.00312e-13 2.57564e-18 0 0 0 0 0 0 0 0 0 0 0 0 0 0 0 0 0 0 94 0.001 
14830 7 0.0120402 -0.0236458 -0.0560791 0 0 0 8.16154e-08 -8.25824e-13 -1.65848e-12 -3.20806e-19 0 0 0 0 0 0 0 0 0 0 0 0 0 0 0 0 0 0 51 0.001 
4101 10 0.00354153 -0.0182571 -0.0551472 0 0 0 1.23566 -9.79684 0.929518 0 -2.0546e-05 0 0 0 0 0 0 0 0 0 0 0 0 0 0 0 0 0 303 0.001 
8180 3 0.00346772 -0.00508878 -0.0562243 0 0 0 6.31155 -13.38 -1.66889 -0.0282802 -0.0102503 0.0310666 0 0 0 0 0 0 0 0 0 0 0 0 0 0 0 0 251 0.001 
18886 4 0.0112926 -0.0088984 -0.0555224 0 0 0 2.31607 -17.2914 0.735381 0 -2.0546e-05 0 0 0 0 0 0 0 0 0 0 0 0 0 0 0 0 0 0 0.001 
9227 6 0.00230669 -0.0306881 -0.0525725 0 0 0 -2.4291e-06 -1.48419e-12 -2.98067e-12 1.03019e-17 0 0 0 0 0 0 0 0 0 0 0 0 0 0 0 0 0 0 54 0.001 
11621 4 0.00748553 -0.0285376 -0.0536433 0 0 0 4.61073e-07 -2.06311e-12 -4.14329e-12 -1.30477e-18 0 0 0 0 0 0 0 0 0 0 0 0 0 0 0 0 0 0 40 0.001 
12369 1 0.0126268 -0.0159943 -0.0516626 0 0 0 0.884041 -4.09486 2.79403 0 -2.0546e-05 0 0 0 0 0 0 0 0 0 0 0 0 0 0 0 0 0 111 0.001 
15422 2 0.0137789 -0.0289092 -0.0503371 0 0 0 0.649198 -6.78696 7.22499 0 -2.0546e-05 0 0 0 0 0 0 0 0 0 0 0 0 0 0 0 0 0 43 0.001 
18784 1 0.0107769 -0.0223179 -0.0494806 0 0 0 3.10588 -12.4285 3.26455 0 -2.0546e-05 0 0 0 0 0 0 0 0 0 0 0 0 0 0 0 0 0 0 0.001 
15372 10 0.0124369 -0.0359685 -0.0489512 0 0 0 -1.95274e-06 -1.46024e-12 -1.93367e-12 6.78345e-20 0 0 0 0 0 0 0 0 0 0 0 0 0 0 0 0 0 0 37 0.001 
6600 1 0.0186305 -0.034601 -0.0499839 0 0 0 4.86762e-07 1.1255e-12 1.4904e-12 3.46175e-20 0 0 0 0 0 0 0 0 0 0 0 0 0 0 0 0 0 0 210 0.001 
17278 4 0.0114771 -0.0286288 -0.0429273 0 0 0 -2.15047 -2.75996 5.16475 0 -2.0546e-05 0 0 0 0 0 0 0 0 0 0 0 0 0 0 0 0 0 56 0.001 
8004 4 0.00459837 -0.00541106 -0.0395107 0 0 0 0.117124 -2.16154 -0.327419 0 -2.0546e-05 0 0 0 0 0 0 0 0 0 0 0 0 0 0 0 0 0 619 0.001 
96 4 0.00332746 -0.0274257 -0.036914 0 0 0 -0.0214287 -2.5395 -0.227049 0 -2.0546e-05 0 0 0 0 0 0 0 0 0 0 0 0 0 0 0 0 0 273 0.001 
16028 3 0.016605 -0.0129428 -0.0328611 0 0 0 -0.483214 -8.36666 3.38127 0 -2.0546e-05 0 0 0 0 0 0 0 0 0 0 0 0 0 0 0 0 0 56 0.001 
4619 5 0.0182188 -0.0216291 -0.0208767 0 0 0 -0.245876 -41.8833 43.3385 -0.000135755 0.174211 0.181167 0 0 0 0 0 0 0 0 0 0 0 0 0 0 0 0 293 0.001 
18497 3 0.00467448 -0.0060028 -0.0533243 0 0 0 3.24015 -18.5642 10.3931 0 -2.0546e-05 0 0 0 0 0 0 0 0 0 0 0 0 0 0 0 0 0 0 0.001 
11551 4 0.00259411 -0.00107764 -0.0496849 0 0 0 -0.347539 -3.29765 -0.73752 0 -2.0546e-05 0 0 0 0 0 0 0 0 0 0 0 0 0 0 0 0 0 109 0.001 
1485 3 0.00215005 -0.00465305 -0.0548411 0 0 0 5.213 -30.4705 8.21632 0.0282802 0.0102092 -0.0310666 0 0 0 0 0 0 0 0 0 0 0 0 0 0 0 0 243 0.001 
18848 1 0.0144208 -0.0290331 0.0496358 0 0 0 -0.308094 7.31397 5.26119 0 -2.0546e-05 0 0 0 0 0 0 0 0 0 0 0 0 0 0 0 0 0 0 0.001 
18913 2 0.00223169 -0.0106431 0.0564867 0 0 0 -17.2243 25.2918 -1.29326 0 -2.0546e-05 0 0 0 0 0 0 0 0 0 0 0 0 0 0 0 0 0 0 0.001 
7282 7 0.00451246 -0.0186221 0.0558193 0 0 0 -3.0266 22.7099 8.8398 0.109398 0.0476872 -0.182817 0 0 0 0 0 0 0 0 0 0 0 0 0 0 0 0 210 0.001 
2921 4 0.000996996 -0.0321382 0.0518427 0 0 0 6.33168e-17 3.40204e-18 9.52132e-19 -1.0842e-19 -2.1684e-19 0 0 0 0 0 0 0 0 0 0 0 0 0 0 0 0 0 0 0.001 
7912 5 0.0136229 -0.014425 0.0566123 0 0 0 2.75313 22.6863 8.44122 0 -2.0546e-05 0 0 0 0 0 0 0 0 0 0 0 0 0 0 0 0 0 216 0.001 
14009 2 0.0169149 -0.00883749 0.0535179 0 0 0 3.65922 10.3469 3.75355 0 -2.0546e-05 0 0 0 0 0 0 0 0 0 0 0 0 0 0 0 0 0 90 0.001 
16922 2 0.00806865 -0.0201773 0.0574096 0 0 0 -4.24055e-06 -6.94243e-14 2.44e-13 1.20671e-19 0 0 0 0 0 0 0 0 0 0 0 0 0 0 0 0 0 0 1 0.001 
18900 3 0.00363818 -0.000265742 0.0572389 0 0 0 7.62227 27.1066 -4.06972 0 -2.0546e-05 0 0 0 0 0 0 0 0 0 0 0 0 0 0 0 0 0 0 0.001 
11457 2 0.0097013 -0.00646158 0.0580656 0 0 0 0.110437 11.9792 2.20441 0 -2.0546e-05 0 0 0 0 0 0 0 0 0 0 0 0 0 0 0 0 0 149 0.001 
15 3 0.0180274 -0.00211713 0.0582863 0 0 0 0.64165 6.88528 -2.01223 0 -2.0546e-05 0 0 0 0 0 0 0 0 0 0 0 0 0 0 0 0 0 253 0.001 
18652 4 0.0181888 -1.85185e-05 0.0587504 0 0 0 1.78032 9.28207 2.63428 0 -2.0546e-05 0 0 0 0 0 0 0 0 0 0 0 0 0 0 0 0 0 0 0.001 
13359 1 0.00139698 -0.01136 0.0599187 0 0 0 -8.40883e-15 3.09569e-17 -9.84142e-17 -2.35297e-17 0 0 0 0 0 0 0 0 0 0 0 0 0 0 0 0 0 0 0 0.001 
9841 2 0.0130163 -0.00903287 0.060163 0 0 0 -8.57038e-07 -2.37501e-13 2.56304e-12 -1.27916e-18 0 0 0 0 0 0 0 0 0 0 0 0 0 0 0 0 0 0 0 0.001 
481 4 0.00768552 -0.0032749 0.0606965 0 0 0 5.32846e-07 -2.69051e-13 2.90351e-12 6.40413e-19 0 0 0 0 0 0 0 0 0 0 0 0 0 0 0 0 0 0 9 0.001 
18331 3 0.0118042 -0.00201027 0.0608137 0 0 0 -1.3177e-07 3.074e-13 -3.31738e-12 -3.40166e-21 0 0 0 0 0 0 0 0 0 0 0 0 0 0 0 0 0 0 0 0.001 
10754 6 0.00338328 -0.0282707 0.0512689 0 0 0 -0.645435 23.864 7.40814 0 -2.0546e-05 0 0 0 0 0 0 0 0 0 0 0 0 0 0 0 0 0 160 0.001 
18159 2 0.00359959 -0.0286295 0.0490661 0 0 0 -0.595579 29.9267 7.45356 0 -2.0546e-05 0 0 0 0 0 0 0 0 0 0 0 0 0 0 0 0 0 1 0.001 
2779 13 0.00882934 0.00120718 -0.0608881 0 0 0 2.36708e-06 6.14916e-14 -6.63593e-13 2.57752e-18 0 0 0 0 0 0 0 0 0 0 0 0 0 0 0 0 0 0 28 0.001 
1541 5 0.00707711 0.00257553 -0.0607613 0 0 0 7.20328e-07 1.64752e-13 -1.77795e-12 2.27995e-22 0 0 0 0 0 0 0 0 0 0 0 0 0 0 0 0 0 0 36 0.001 
13547 1 0.0114208 0.00321902 -0.0607017 0 0 0 -2.82598e-07 1.67117e-13 -1.80349e-12 3.17216e-19 0 0 0 0 0 0 0 0 0 0 0 0 0 0 0 0 0 0 4 0.001 
7390 2 0.0176859 0.00346382 -0.060679 0 0 0 7.95873e-07 3.55308e-13 -3.8344e-12 4.55529e-21 0 0 0 0 0 0 0 0 0 0 0 0 0 0 0 0 0 0 68 0.001 
1162 8 0.00101446 0.00376132 -0.0606515 0 0 0 2.5669e-07 1.1515e-13 -1.24266e-12 -7.01168e-21 0 0 0 0 0 0 0 0 0 0 0 0 0 0 0 0 0 0 93 0.001 
4094 1 0.00326085 0.00591231 -0.0604521 0 0 0 2.67197e-06 5.44789e-13 -5.87923e-12 2.55827e-18 0 0 0 0 0 0 0 0 0 0 0 0 0 0 0 0 0 0 54 0.001 
8019 1 0.0109133 0.00736498 -0.0603175 0 0 0 9.23983e-07 -4.03337e-13 4.35269e-12 -1.26849e-18 0 0 0 0 0 0 0 0 0 0 0 0 0 0 0 0 0 0 106 0.001 
9313 6 0.0129493 0.00678397 -0.0603714 0 0 0 4.65791e-07 3.9106e-13 -4.22021e-12 1.63489e-20 0 0 0 0 0 0 0 0 0 0 0 0 0 0 0 0 0 0 140 0.001 
51 4 0.000997264 0.00966441 -0.0601045 0 0 0 2.23397e-18 9.64734e-18 -9.76898e-17 0 0 0 0 0 0 0 0 0 0 0 0 0 0 0 0 0 0 0 92 0.001 
14294 3 0.00304013 0.00962971 -0.0601077 0 0 0 3.71962e-07 -1.7606e-13 1.89998e-12 6.51913e-19 0 0 0 0 0 0 0 0 0 0 0 0 0 0 0 0 0 0 0 0.001 
7358 10 0.00618364 0.00894991 -0.0601707 0 0 0 1.63539e-06 -1.32934e-13 1.43458e-12 -7.2291e-22 0 0 0 0 0 0 0 0 0 0 0 0 0 0 0 0 0 0 44 0.001 
15466 12 0.00822381 0.00927784 -0.0601403 0 0 0 -1.79624e-07 1.34656e-13 -1.45317e-12 -1.61612e-19 0 0 0 0 0 0 0 0 0 0 0 0 0 0 0 0 0 0 0 0.001 
16960 2 0.0126513 0.00946529 -0.0601248 0 0 0 0.0127774 -0.00194477 -0.000229145 -4.99153e-06 6.19163e-07 -1.55599e-07 0 1 0 0 0 0 0 0 0 0 0 0 0 0 0 0 1 0.001 
17985 13 0.0146314 0.00919621 -0.0601513 0 0 0 0.0125078 -0.000322678 -3.58662e-05 -2.7151e-05 2.06824e-06 7.86286e-07 0 1 0 0 0 0 0 0 0 0 0 0 0 0 0 0 1 0.001 
4481 8 0.00521199 0.0369414 -0.0192476 0 0 0 0.972713 -1.56894 -0.0161561 0 -2.0546e-05 0 0 0 0 0 0 0 0 0 0 0 0 0 0 0 0 0 220 0.001 
2700 5 0.00170643 0.0115482 -0.0598648 0 0 0 -7.85551e-08 -6.98226e-09 -2.09714e-09 3.54209e-16 7.95479e-16 -4.50638e-15 0 0 0 0 1 0 0 0 0 0 0 0 0 0 0 0 69 0.001 
16725 6 0.00679893 0.0114185 -0.0598975 0 0 0 0.0762037 -7.13207e-13 2.0107e-12 -1.63139e-17 1.26208e-19 4.06576e-20 0 0 0 0 0 0 0 0 0 0 0 0 0 0 0 0 0 0.001 
3453 1 0.0115457 0.0112684 -0.0599441 0 0 0 0.00531487 1.156e-13 -4.30983e-13 5.86532e-18 1.36609e-17 3.90313e-18 0 0 0 0 0 0 0 0 0 0 0 0 0 0 0 0 139 0.001 
2228 2 0.0010591 0.0133637 -0.0593482 0 0 0 7.8555e-08 6.98227e-09 2.09982e-09 -2.292e-16 6.31873e-16 -1.83577e-15 0 0 0 0 1 0 0 0 0 0 0 0 0 0 0 0 10 0.001 
11238 4 0.00485375 0.0135072 -0.0593074 0 0 0 -1.03366e-06 -2.45031e-13 8.61194e-13 -5.31318e-22 0 0 0 0 0 0 0 0 0 0 0 0 0 0 0 0 0 0 81 0.001 
10768 2 0.0100362 0.0128903 -0.0594829 0 0 0 8.59632e-07 4.73269e-13 -1.66336e-12 -1.30348e-21 0 0 0 0 0 0 0 0 0 0 0 0 0 0 0 0 0 0 146 0.001 
1549 9 0.0151254 0.0139134 -0.0591918 0 0 0 -1.14451e-06 1.17301e-08 -3.11359e-08 2.7122e-10 -5.23686e-10 1.0261e-09 0 0 0 0 0 0 0 0 0 0 0 0 0 0 0 0 201 0.001 
14556 1 0.0171658 0.0140626 -0.0591494 0 0 0 1.25072e-06 -6.74267e-08 -1.92097e-08 4.8171e-11 7.99402e-12 2.35861e-12 1 0 0 0 0 0 0 0 0 0 0 0 0 0 0 0 68 0.001 
5691 2 0.00549724 0.0155519 -0.0587256 0 0 0 -2.78083e-07 -2.96807e-14 1.04319e-13 6.30069e-21 0 0 0 0 0 0 0 0 0 0 0 0 0 0 0 0 0 0 6 0.001 
11505 3 0.016584 0.0160307 -0.0585894 0 0 0 -8.77018e-07 -6.84474e-13 2.40567e-12 2.59604e-18 0 0 0 0 0 0 0 0 0 0 0 0 0 0 0 0 0 0 97 0.001 
14515 3 0.00913573 0.017924 -0.0580507 0 0 0 1.06325e-06 1.4577e-12 -5.12329e-12 -3.30778e-21 0 0 0 0 0 0 0 0 0 0 0 0 0 0 0 0 0 0 5 0.001 
4012 2 0.0170282 0.0179203 -0.0580519 0 0 0 4.13845e-07 -5.59315e-08 -2.18288e-08 -7.2055e-15 -8.09211e-15 -2.75474e-15 0 1 0 0 0 0 0 0 0 0 0 0 0 0 0 0 175 0.001 
1111 1 0.0049019 0.0187727 -0.0578092 0 0 0 -3.75555e-07 2.49594e-13 -8.77234e-13 -6.35833e-19 0 0 0 0 0 0 0 0 0 0 0 0 0 0 0 0 0 0 27 0.001 
11167 2 0.00704689 0.0190563 -0.0577285 0 0 0 -4.88555e-07 6.63186e-13 -2.33086e-12 -1.28171e-18 0 0 0 0 0 0 0 0 0 0 0 0 0 0 0 0 0 0 9 0.001 
737 5 0.0183028 0.0193984 -0.057631 0 0 0 -4.13843e-07 5.59326e-08 2.18367e-08 7.32736e-15 7.1205e-15 6.66394e-15 0 1 0 0 0 0 0 0 0 0 0 0 0 0 0 0 223 0.001 
14035 3 0.01394 0.0081226 -0.0581959 0 0 0 0.400877 -10.5464 -2.4595 0 -2.0546e-05 0 0 0 0 0 0 0 0 0 0 0 0 0 0 0 0 0 119 0.001 
831 8 0.0026277 0.019979 -0.057466 0 0 0 -4.53336e-08 -1.56213e-12 5.4903e-12 -8.1271e-20 0 0 0 0 0 0 0 0 0 0 0 0 0 0 0 0 0 0 11 0.001 
7357 9 0.00467159 0.0209871 -0.0571792 0 0 0 -6.2675e-07 -1.69869e-08 -7.74098e-09 4.07518e-11 -1.44588e-11 -2.32032e-11 0 0 0 0 0 0 0 0 1 0 0 0 0 0 0 0 15 0.001 
14016 10 0.00677349 0.0211188 -0.0571417 0 0 0 6.86952e-07 1.29701e-12 -4.55851e-12 -1.30701e-18 0 0 0 0 0 0 0 0 0 0 0 0 0 0 0 0 0 0 99 0.001 
1173 2 0.00104356 0.0222381 -0.05678 0 0 0 1.25805e-08 5.55571e-13 -1.11574e-12 4.03294e-20 0 0 0 0 0 0 0 0 0 0 0 0 0 0 0 0 0 0 3 0.001 
6167 10 0.00315805 0.0222311 -0.0567789 0 0 0 3.76921e-06 4.57853e-06 2.71142e-06 -8.82983e-09 -1.00422e-08 -5.89241e-09 0 0 0 0 0 0 0 0 1 0 0 0 0 0 0 0 203 0.001 
8162 7 0.00561586 0.0228247 -0.0564879 0 0 0 3.11945e-07 2.00132e-14 -4.01938e-14 -3.71612e-20 0 0 0 0 0 0 0 0 0 0 0 0 0 0 0 0 0 0 31 0.001 
18521 1 0.00417088 0.00316422 -0.0578119 0 0 0 -2.16872 -3.93668 6.2331 0 -2.0546e-05 0 0 0 0 0 0 0 0 0 0 0 0 0 0 0 0 0 0 0.001 
6362 6 0.0110991 0.0130231 -0.0558191 0 0 0 -0.432462 -11.0318 0.663624 0 -2.0546e-05 0 0 0 0 0 0 0 0 0 0 0 0 0 0 0 0 0 271 0.001 
4368 4 0.00212943 0.0237829 -0.0560108 0 0 0 7.75472e-08 -1.48433e-12 2.98093e-12 -9.88278e-21 0 0 0 0 0 0 0 0 0 0 0 0 0 0 0 0 0 0 15 0.001 
302 2 0.00651116 0.0257133 -0.0550496 0 0 0 2.15982e-06 4.98136e-13 -1.00039e-12 1.0231e-17 0 0 0 0 0 0 0 0 0 0 0 0 0 0 0 0 0 0 0 0.001 
10440 2 0.00929455 0.0255486 -0.0551316 0 0 0 -9.50001e-08 -1.93985e-12 3.89575e-12 -1.90493e-20 0 0 0 0 0 0 0 0 0 0 0 0 0 0 0 0 0 0 77 0.001 
18921 3 0.0152251 0.0349268 -0.0144812 0 0 0 -1.5703 -2.56387 -1.26795 0 -2.0546e-05 0 0 0 0 0 0 0 0 0 0 0 0 0 0 0 0 0 0 0.001 
8016 9 0.00406858 0.0265765 -0.0546198 0 0 0 9.33239e-07 2.5783e-12 -5.17792e-12 -4.81647e-20 0 0 0 0 0 0 0 0 0 0 0 0 0 0 0 0 0 0 6 0.001 
15536 2 0.0106421 0.0272881 -0.0542654 0 0 0 7.16322e-07 -1.3209e-12 2.65272e-12 8.33221e-21 0 0 0 0 0 0 0 0 0 0 0 0 0 0 0 0 0 0 1 0.001 
17087 8 0.0159868 0.0273859 -0.0542167 0 0 0 -7.35537e-07 1.38809e-12 -2.78767e-12 1.20996e-19 0 0 0 0 0 0 0 0 0 0 0 0 0 0 0 0 0 0 54 0.001 
3897 2 0.00690889 0.028718 -0.0535534 0 0 0 2.03895e-06 -1.96057e-12 3.93737e-12 -1.06868e-19 0 0 0 0 0 0 0 0 0 0 0 0 0 0 0 0 0 0 19 0.001 
10476 3 0.00457709 0.0296234 -0.0531026 0 0 0 4.45806e-07 -5.9104e-13 1.18697e-12 1.30194e-18 0 0 0 0 0 0 0 0 0 0 0 0 0 0 0 0 0 0 14 0.001 
2150 8 0.00694557 0.0305647 -0.0526339 0 0 0 6.60467e-07 -1.56203e-12 3.13699e-12 -3.28254e-20 0 0 0 0 0 0 0 0 0 0 0 0 0 0 0 0 0 0 227 0.001 
16909 4 0.00900565 0.0306278 -0.0526025 0 0 0 -2.50035e-07 -2.38857e-12 4.79689e-12 -3.10925e-20 0 0 0 0 0 0 0 0 0 0 0 0 0 0 0 0 0 0 0 0.001 
9052 9 0.0114568 0.00951316 -0.0535733 0 0 0 -0.719747 -4.32983 -2.40105 0 -2.0546e-05 0 0 0 0 0 0 0 0 0 0 0 0 0 0 0 0 0 102 0.001 
6567 4 0.000996489 0.0318023 -0.0520175 0 0 0 4.01702e-18 4.43227e-17 -8.82651e-17 0 0 0 0 0 0 0 0 0 0 0 0 0 0 0 0 0 0 0 23 0.001 
10348 7 0.00497986 0.0321418 -0.0518401 0 0 0 -0.0148015 -2.96563e-13 4.16023e-13 -4.34638e-18 1.66967e-17 1.17094e-17 0 0 0 0 0 0 0 0 0 0 0 0 0 0 0 0 12 0.001 
4102 12 0.0136716 0.00856824 -0.0537873 0 0 0 0.448329 -7.41478 -7.03526 0 -2.0546e-05 0 0 0 0 0 0 0 0 0 0 0 0 0 0 0 0 0 335 0.001 
1631 7 0.00260807 0.0330195 -0.0511782 0 0 0 -1.44709e-07 -9.51471e-13 1.25995e-12 -1.17541e-20 0 0 0 0 0 0 0 0 0 0 0 0 0 0 0 0 0 0 52 0.001 
11778 11 0.0080433 0.0330578 -0.0511492 0 0 0 6.46713e-07 -7.76254e-08 -5.86626e-08 -2.16322e-14 -2.78748e-15 -2.27778e-14 0 0 0 0 0 0 0 0 0 0 1 0 0 0 0 0 117 0.001 
6942 7 0.00525349 0.0339634 -0.0504654 0 0 0 -4.60702e-07 1.81389e-12 -2.40198e-12 -2.54939e-18 0 0 0 0 0 0 0 0 0 0 0 0 0 0 0 0 0 0 47 0.001 
15572 5 0.00966772 0.0339843 -0.0504496 0 0 0 -6.46708e-07 7.76262e-08 5.86683e-08 2.20598e-14 1.78997e-14 2.81155e-15 0 0 0 0 0 0 0 0 0 0 1 0 0 0 0 0 62 0.001 
7778 6 0.014156 0.0337725 -0.0506095 0 0 0 1.86694e-07 2.80562e-12 -3.71525e-12 -8.07969e-20 0 0 0 0 0 0 0 0 0 0 0 0 0 0 0 0 0 0 214 0.001 
11305 3 0.0162222 0.0341274 -0.0503415 0 0 0 1.32702e-07 8.33299e-13 -1.10347e-12 -6.5245e-20 0 0 0 0 0 0 0 0 0 0 0 0 0 0 0 0 0 0 206 0.001 
9437 6 0.00384238 0.0353027 -0.0113069 0 0 0 -0.00651522 -2.04782 1.67014 0 -2.0546e-05 0 0 0 0 0 0 0 0 0 0 0 0 0 0 0 0 0 141 0.001 
2215 6 0.00276412 0.0355335 -0.0492797 0 0 0 -8.2364e-07 6.82919e-13 -9.04333e-13 -7.15301e-20 0 0 0 0 0 0 0 0 0 0 0 0 0 0 0 0 0 0 30 0.001 
1337 2 0.0118554 0.035598 -0.049231 0 0 0 -9.18756e-07 -9.38862e-13 1.24325e-12 -5.18378e-18 0 0 0 0 0 0 0 0 0 0 0 0 0 0 0 0 0 0 271 0.001 
7126 8 0.00245219 0.0249066 -0.0519616 0 0 0 1.09955 -16.7776 -4.45225 0 -2.0546e-05 0 0 0 0 0 0 0 0 0 0 0 0 0 0 0 0 0 265 0.001 
12887 2 0.00878159 0.0111102 -0.046642 0 0 0 0.938704 -2.15864 -2.36188 0 -2.0546e-05 0 0 0 0 0 0 0 0 0 0 0 0 0 0 0 0 0 125 0.001 
16763 4 0.0104273 0.0279778 -0.0460063 0 0 0 1.04365 -2.57413 -0.894248 0 -2.0546e-05 0 0 0 0 0 0 0 0 0 0 0 0 0 0 0 0 0 40 0.001 
15401 6 0.0164825 0.00158262 -0.0527208 0 0 0 7.59997 -12.03 -15.7603 0 -2.0546e-05 0 0 0 0 0 0 0 0 0 0 0 0 0 0 0 0 0 100 0.001 
13101 3 0.00452856 0.0237579 -0.0445299 0 0 0 0.184706 -6.80922 -8.27027 0 -2.0546e-05 0 0 0 0 0 0 0 0 0 0 0 0 0 0 0 0 0 114 0.001 
4182 8 0.00672881 0.0229146 -0.0459696 0 0 0 1.16858 0.557865 -10.2907 0 -2.0546e-05 0 0 0 0 0 0 0 0 0 0 0 0 0 0 0 0 0 219 0.001 
18372 4 0.0136073 0.0297879 -0.0414402 0 0 0 0.280227 -2.58814 -1.42951 0 -2.0546e-05 0 0 0 0 0 0 0 0 0 0 0 0 0 0 0 0 0 1 0.001 
18696 3 0.00832962 0.00602433 -0.040229 0 0 0 -1.14426 -3.84978 -2.12403 0 -2.0546e-05 0 0 0 0 0 0 0 0 0 0 0 0 0 0 0 0 0 0 0.001 
18861 2 0.00606111 0.0206029 -0.0406867 0 0 0 0.165327 -5.02535 -3.2353 0 -2.0546e-05 0 0 0 0 0 0 0 0 0 0 0 0 0 0 0 0 0 0 0.001 
12807 2 0.00480337 0.0252633 -0.0417923 0 0 0 2.16679 1.71994 -4.00611 0 -2.0546e-05 0 0 0 0 0 0 0 0 0 0 0 0 0 0 0 0 0 154 0.001 
17921 7 0.0111854 0.0073164 -0.0365451 0 0 0 0.20367 -6.43994 -0.572665 0 -2.0546e-05 0 0 0 0 0 0 0 0 0 0 0 0 0 0 0 0 0 5 0.001 
18685 6 0.00991534 0.0296901 -0.0354489 0 0 0 -0.48147 -0.626766 -0.947339 0 -2.0546e-05 0 0 0 0 0 0 0 0 0 0 0 0 0 0 0 0 0 0 0.001 
10626 12 0.00263685 0.0351404 -0.0342126 0 0 0 0.151589 -2.22156 -1.02368 0 -2.0546e-05 0 0 0 0 0 0 0 0 0 0 0 0 0 0 0 0 0 163 0.001 
6970 2 0.0113062 0.0239218 -0.0328988 0 0 0 2.49406 -4.66632 -2.2949 0 -2.0546e-05 0 0 0 0 0 0 0 0 0 0 0 0 0 0 0 0 0 226 0.001 
18924 2 0.0183556 0.000751953 -0.0371895 0 0 0 -0.2602 -16.9563 -12.4431 0 -2.0546e-05 0 0 0 0 0 0 0 0 0 0 0 0 0 0 0 0 0 0 0.001 
2283 5 0.00654998 0.031198 -0.0300725 0 0 0 0.153502 -3.73252 0.108941 0 -2.0546e-05 0 0 0 0 0 0 0 0 0 0 0 0 0 0 0 0 0 239 0.001 
1699 2 0.00298042 0.0251573 -0.0442207 0 0 0 3.00861 -26.1276 -8.38953 0 -2.0546e-05 0 0 0 0 0 0 0 0 0 0 0 0 0 0 0 0 0 252 0.001 
4381 6 0.0168622 0.0253858 -0.0281243 0 0 0 0.717844 -3.85747 0.212319 0 -2.0546e-05 0 0 0 0 0 0 0 0 0 0 0 0 0 0 0 0 0 182 0.001 
4434 4 0.00266625 0.0309787 -0.027898 0 0 0 -0.63145 -3.24341 1.55412 0 -2.0546e-05 0 0 0 0 0 0 0 0 0 0 0 0 0 0 0 0 0 227 0.001 
3149 1 0.0172131 0.0219665 -0.0269671 0 0 0 1.08183 -8.14716 -1.55857 0 -2.0546e-05 0 0 0 0 0 0 0 0 0 0 0 0 0 0 0 0 0 222 0.001 
2411 5 0.016641 0.0237364 -0.0259018 0 0 0 -3.0607 -7.17864 1.30638 0 -2.0546e-05 0 0 0 0 0 0 0 0 0 0 0 0 0 0 0 0 0 194 0.001 
12748 1 0.00576897 0.0350442 -0.0256282 0 0 0 0.112466 -2.74212 0.753703 0 -2.0546e-05 0 0 0 0 0 0 0 0 0 0 0 0 0 0 0 0 0 104 0.001 
13597 3 0.017972 0.0261566 -0.0220213 0 0 0 1.84298 -5.28972 2.37379 0 -2.0546e-05 0 0 0 0 0 0 0 0 0 0 0 0 0 0 0 0 0 105 0.001 
8876 7 0.0106494 0.0349138 -0.0223017 0 0 0 0.29035 -1.8028 1.16466 0 -2.0546e-05 0 0 0 0 0 0 0 0 0 0 0 0 0 0 0 0 0 195 0.001 
8703 2 0.0140297 0.0366561 -0.0231003 0 0 0 -0.233836 0.718313 0.556838 0 -2.0546e-05 0 0 0 0 0 0 0 0 0 0 0 0 0 0 0 0 0 220 0.001 
5435 1 0.00195068 0.0284733 -0.0212589 0 0 0 0.687334 -2.0899 0.0625429 0.0904047 0.00802742 -0.002675 0 0 0 0 0 0 0 0 0 0 0 0 0 0 0 0 219 0.001 
18724 3 0.00689245 0.0340971 -0.021536 0 0 0 -1.83973 0.592678 0.191919 0 -2.0546e-05 0 0 0 0 0 0 0 0 0 0 0 0 0 0 0 0 0 0 0.001 
11374 1 0.00925342 0.0331383 -0.0218649 0 0 0 -0.669926 -2.16246 0.971304 0 -2.0546e-05 0 0 0 0 0 0 0 0 0 0 0 0 0 0 0 0 0 138 0.001 
4129 2 0.00547833 0.0292864 -0.0297712 0 0 0 -0.299266 -1.03556 -19.5192 0 -2.0546e-05 0 0 0 0 0 0 0 0 0 0 0 0 0 0 0 0 0 218 0.001 
4835 6 0.0108595 0.0302053 -0.0186055 0 0 0 0.461451 0.571112 0.691466 0 -2.0546e-05 0 0 0 0 0 0 0 0 0 0 0 0 0 0 0 0 0 172 0.001 
17214 5 0.00630547 0.0332809 -0.0189481 0 0 0 0.272214 -1.70566 0.696787 0 -2.0546e-05 0 0 0 0 0 0 0 0 0 0 0 0 0 0 0 0 0 30 0.001 
5404 1 0.00957302 0.0339962 -0.0188534 0 0 0 0.587197 -2.93379 2.24779 0 -2.0546e-05 0 0 0 0 0 0 0 0 0 0 0 0 0 0 0 0 0 259 0.001 
18613 6 0.0161295 0.0272219 -0.0166292 0 0 0 -0.318704 -3.76672 -1.83833 0 -2.0546e-05 0 0 0 0 0 0 0 0 0 0 0 0 0 0 0 0 0 0 0.001 
7445 5 0.00405885 0.0310753 -0.0166871 0 0 0 0.674356 -2.07545 0.444356 0 -2.0546e-05 0 0 0 0 0 0 0 0 0 0 0 0 0 0 0 0 0 219 0.001 
2297 6 0.0098714 0.0360982 -0.014131 0 0 0 -1.01267 -2.39416 2.12606 0 -2.0546e-05 0 0 0 0 0 0 0 0 0 0 0 0 0 0 0 0 0 219 0.001 
7915 4 0.00955302 0.0319663 -0.0131544 0 0 0 -0.719992 -1.78387 2.11222 0 -2.0546e-05 0 0 0 0 0 0 0 0 0 0 0 0 0 0 0 0 0 203 0.001 
11925 4 0.00833272 0.0371069 -0.0284772 0 0 0 -2.3055 -5.81373 -3.95013 0 -2.0546e-05 0 0 0 0 0 0 0 0 0 0 0 0 0 0 0 0 0 115 0.001 
4691 1 0.0005 0.0345857 0.0128267 0 0 0 -8.33427e-15 -6.74571e-20 3.14727e-303 0 0 1.85e-307 0 0 0 0 0 0 0 0 0 0 0 0 0 0 0 0 0 0.001 
11153 6 0.0005 0.0270406 0.0204463 0 0 0 6.37048e-14 -1.80223e-19 -3.67985e-302 0 0 -1.82846e-307 0 0 0 0 0 0 0 0 0 0 0 0 0 0 0 0 0 0.001 
5252 1 0.0005 0.0355245 0.0268642 0 0 0 -1.37757e-14 1.01195e-19 -5.15157e-303 0 0 1.80671e-307 0 0 0 0 0 0 0 0 0 0 0 0 0 0 0 0 37 0.001 
4879 4 0.0108633 0.0218963 0.0307191 0 0 0 1.07492 -1.85106 1.5634 0 -2.0546e-05 0 0 0 0 0 0 0 0 0 0 0 0 0 0 0 0 0 229 0.001 
17386 11 0.0160968 0.00897444 0.0601655 0 0 0 -0.000979295 0.000145902 -1.35198e-05 2.11056e-08 -3.14446e-09 2.91356e-10 0 0 0 0 0 0 0 0 0 0 0 0 0 0 0 0 0 0.001 
9107 5 0.00215248 0.0290938 0.0477281 0 0 0 0.459816 0.906386 -1.06641 0 -2.0546e-05 0 0 0 0 0 0 0 0 0 0 0 0 0 0 0 0 0 235 0.001 
7656 2 0.00974398 0.0360682 0.0488759 0 0 0 1.55455e-06 2.37414e-12 3.14384e-12 -1.02642e-17 -6.50521e-19 4.33681e-19 0 0 0 0 0 0 0 0 0 0 0 0 0 0 0 0 0 0.001 
18655 8 0.018338 0.0274155 0.0519218 0 0 0 2.71354 12.0048 -6.67784 0 -2.0546e-05 0 0 0 0 0 0 0 0 0 0 0 0 0 0 0 0 0 0 0.001 
14897 9 0.0045541 0.0237894 0.0560076 0 0 0 -4.57062e-06 2.7391e-13 5.50089e-13 2.05457e-17 0 0 0 0 0 0 0 0 0 0 0 0 0 0 0 0 0 0 0 0.001 
8059 4 0.0122445 0.0054481 0.0604952 0 0 0 -1.12642e-06 2.70619e-13 2.92046e-12 -1.19656e-20 0 0 0 0 0 0 0 0 0 0 0 0 0 0 0 0 0 0 1 0.001 
250 7 0.00278733 0.0218714 0.056926 0 0 0 -0.064775 9.07224e-13 3.73984e-12 -4.03441e-17 -5.7029e-17 1.36609e-17 0 0 0 0 0 0 0 0 0 0 0 0 0 0 0 0 52 0.001 
649 4 0.0138173 0.0180582 0.0580125 0 0 0 1.05406e-06 -2.67656e-13 -9.4071e-13 2.57117e-18 0 0 0 0 0 0 0 0 0 0 0 0 0 0 0 0 0 0 43 0.001 
4946 8 0.0181992 0.014733 0.0589586 0 0 0 2.20278e-06 5.04195e-13 9.93993e-13 -3.40051e-14 2.58044e-14 6.2372e-15 0 0 0 0 0 0 0 0 0 0 0 0 0 0 0 0 2 0.001 
11728 3 0.000999839 3.49817e-05 0.0609992 0 0 0 2.78813e-19 4.77588e-18 2.60523e-19 0 0 0 0 0 0 0 0 0 0 0 0 0 0 0 0 0 0 0 86 0.001 
4913 2 0.00526561 0.000857768 0.0609205 0 0 0 3.89209e-07 9.36003e-14 1.01011e-12 -6.43358e-19 0 0 0 0 0 0 0 0 0 0 0 0 0 0 0 0 0 0 170 0.001 
12207 2 0.0167529 0.00297255 0.0607246 0 0 0 3.15092e-07 -4.14849e-13 -4.47692e-12 1.55384e-21 0 0 0 0 0 0 0 0 0 0 0 0 0 0 0 0 0 0 3 0.001 
7474 7 0.0150709 0.00441546 0.0605908 0 0 0 -2.48254e-07 -4.52191e-13 -4.87993e-12 3.2128e-19 0 0 0 0 0 0 0 0 0 0 0 0 0 0 0 0 0 0 21 0.001 
11802 4 0.0165743 0.0376998 -0.0476438 0 0 0 -2.76191e-07 -8.55901e-13 1.1334e-12 -6.33232e-21 0 0 0 0 0 0 0 0 0 0 0 0 0 0 0 0 0 0 1 0.001 
7863 6 0.00927376 0.0380991 -0.0473423 0 0 0 -9.57754e-07 8.90305e-13 -1.17895e-12 5.16474e-18 0 0 0 0 0 0 0 0 0 0 0 0 0 0 0 0 0 0 98 0.001 
11512 4 0.0176506 0.0391105 -0.0465785 0 0 0 -1.26074e-06 2.08689e-12 -2.76349e-12 -5.12449e-18 0 0 0 0 0 0 0 0 0 0 0 0 0 0 0 0 0 0 0 0.001 
1193 3 0.000996221 0.0409733 -0.0451718 0 0 0 9.18526e-18 5.82663e-17 -7.90593e-17 0 0 -4.33681e-19 0 0 0 0 0 0 0 0 0 0 0 0 0 0 0 0 0 0.001 
13471 3 0.0121859 0.0748844 0.00479206 0 0 0 0.283364 -0.242377 -0.172546 0 -2.0546e-05 0 0 0 0 0 0 0 0 0 0 0 0 0 0 0 0 0 111 0.001 
2105 4 0.00328971 0.0450869 -0.0407011 0 0 0 1.92518e-07 1.08989e-12 -9.93566e-13 2.5526e-18 0 0 0 0 0 0 0 0 0 0 0 0 0 0 0 0 0 0 191 0.001 
13799 4 0.00902003 0.0410914 -0.0383555 0 0 0 1.31048 -0.699422 0.224403 0 -2.0546e-05 0 0 0 0 0 0 0 0 0 0 0 0 0 0 0 0 0 79 0.001 
139 12 0.00828077 0.0515255 -0.0355 0 0 0 -3.27096e-80 1.18677e-20 3.03954e-12 -7.59895e-81 0 0 0 0 0 0 0 0 0 0 0 0 0 0 0 0 0 0 2 0.001 
2677 5 0.0128184 0.0511485 -0.0355 0 0 0 4.99818e-05 -0.000125019 2.68097e-05 -3.19367e-05 2.20141e-05 2.59985e-05 0 0 0 0 0 0 0 0 0 0 0 0 0 0 0 0 15 0.001 
6241 2 0.0149136 0.0504618 -0.0355001 0 0 0 -0.0163025 -1.46217e-14 8.96653e-13 -5.0561e-16 0 -4.44089e-16 0 0 0 0 0 0 0 0 0 0 0 0 0 0 0 0 90 0.001 
3228 6 0.0106771 0.0517901 -0.0355 0 0 0 4.01274e-290 1.2415e-19 1.01874e-12 -1.56545e-290 0 -4.44089e-16 0 0 0 0 0 0 0 0 0 0 0 0 0 0 0 0 3 0.001 
4324 5 0.0170122 0.0519528 -0.0354972 0 0 0 4.90123e-16 4.85539e-17 -3.6864e-13 0 0 0 0 0 0 0 1 0 0 0 0 0 0 0 0 0 0 0 250 0.001 
12644 7 0.0159826 0.0541736 -0.0355 0 0 0 3.05766e-16 8.62459e-17 -3.68632e-13 0 -8.67362e-19 0 0 0 0 0 0 0 1 0 0 0 0 0 0 0 0 0 102 0.001 
5246 3 0.0178389 0.0535965 -0.0355028 0 0 0 -8.27557e-16 -6.0767e-16 -3.6865e-13 1.38778e-17 1.38778e-17 0 0 0 0 0 1 0 1 0 0 0 0 0 0 0 0 0 305 0.001 
2449 1 0.00787743 0.0550949 -0.0355009 0 0 0 -3.33397e-06 4.17944e-07 -1.12761e-08 2.05197e-07 -2.00642e-08 3.55778e-10 1 0 0 0 0 0 0 0 0 0 0 0 0 0 0 0 132 0.001 
168 1 0.0102444 0.0543121 -0.0354995 0 0 0 -2.18763e-16 5.47784e-16 4.56471e-12 6.93889e-18 0 0 1 0 0 0 0 0 0 0 0 0 0 0 0 0 0 0 220 0.001 