ITEM: TIMESTEP
11400000
ITEM: NUMBER OF ENTRIES
5872
ITEM: BOX BOUNDS ff ff ff
-0.01 0.45
-0.15 0.15
-0.08 0.1
ITEM: ENTRIES c_pwc[1] c_pwc[2] c_pwc[3] 
0 880 26477 
0 880 5240 
0 880 12206 
0 880 3449 
0 880 7659 
0 879 26477 
0 930 107 
0 782 31295 
0 780 15447 
0 778 32938 
0 778 40577 
0 778 8694 
0 778 12685 
0 778 34054 
0 778 43338 
0 778 41907 
0 778 18177 
0 776 9182 
0 776 24342 
0 776 24256 
0 776 32944 
0 776 38382 
0 776 38284 
0 776 17228 
0 776 41129 
0 776 37162 
0 776 3875 
0 776 24012 
0 776 39402 
0 776 38756 
0 776 32081 
0 776 40301 
0 776 33185 
0 776 13359 
0 776 32024 
0 776 37280 
0 776 15413 
0 776 30347 
0 776 31325 
0 776 11472 
0 776 38136 
0 776 20673 
0 776 31024 
0 776 38897 
0 776 7928 
0 776 42203 
0 776 43093 
0 776 37317 
0 776 22905 
0 776 33650 
0 776 18050 
0 776 8708 
0 776 42725 
0 776 34842 
0 776 31475 
0 776 42888 
0 776 37000 
0 776 31389 
0 776 38558 
0 776 43778 
0 776 41853 
0 776 28603 
0 776 38144 
0 776 39661 
0 776 38039 
0 776 29534 
0 858 39362 
0 828 26477 
0 828 107 
0 828 5240 
0 828 12206 
0 828 3449 
0 828 37289 
0 828 7659 
0 828 14716 
0 828 31942 
0 828 2893 
0 828 10208 
0 828 5886 
0 828 4809 
0 828 9436 
0 827 39362 
0 774 16375 
0 774 27828 
0 774 4369 
0 871 12206 
0 871 37289 
0 871 14716 
0 871 31942 
0 871 2893 
0 871 10208 
0 871 5886 
0 871 4809 
0 871 9436 
0 836 26477 
0 944 45137 
0 942 11606 
0 774 5016 
0 774 31732 
0 774 39389 
0 865 44332 
0 865 15377 
0 865 3975 
0 865 12722 
0 828 3539 
0 827 44332 
0 827 15377 
0 827 3975 
0 827 12722 
0 873 3917 
0 873 22586 
0 867 3539 
0 825 3917 
0 825 22586 
0 946 4932 
0 863 1234 
0 862 22 
0 821 22 
0 821 1234 
1 660 17439 
0 866 4266 
0 866 2360 
0 866 5398 
0 866 8314 
0 866 99 
0 866 1854 
0 866 10484 
0 866 2831 
0 866 530 
0 866 25090 
0 866 26965 
0 958 44980 
0 861 686 
0 861 1268 
0 861 587 
0 861 4814 
0 823 4814 
0 822 686 
0 822 1268 
0 822 587 
0 828 4266 
0 828 2360 
0 828 5398 
0 828 8314 
0 828 99 
0 828 1854 
0 828 10484 
0 828 2831 
0 828 530 
0 828 25090 
0 828 26965 
1 768 4266 
0 850 1878 
0 850 6 
0 850 10003 
0 850 32685 
0 850 23083 
0 850 15320 
0 850 4815 
0 850 19555 
0 850 6960 
0 850 2731 
0 850 27329 
0 850 10743 
0 850 2025 
0 850 24362 
0 850 1087 
0 850 2606 
0 850 1533 
0 850 165 
0 850 4590 
0 850 2789 
0 850 42193 
0 850 23935 
0 850 38566 
0 850 5488 
0 850 996 
0 850 2192 
0 850 5450 
0 850 636 
0 850 16506 
0 850 14222 
0 850 12968 
0 850 8405 
0 850 6447 
0 850 4020 
0 850 19385 
0 850 27285 
0 850 34471 
0 850 5847 
0 850 29468 
0 850 12753 
0 850 19302 
0 850 17768 
0 850 14834 
0 850 13702 
0 850 5090 
0 850 22387 
0 850 27752 
0 850 27207 
0 850 34957 
0 850 19682 
0 850 19125 
0 850 20139 
0 850 20044 
0 850 16630 
0 850 2205 
0 850 19113 
0 850 6060 
0 850 10983 
0 850 232 
0 850 4994 
0 850 44012 
0 850 30422 
0 850 6094 
0 850 39276 
0 850 19759 
0 850 24076 
0 850 35014 
0 850 33115 
0 850 32698 
0 850 3669 
0 850 36465 
0 850 8758 
0 850 10254 
0 850 4812 
0 850 32045 
0 850 22432 
0 850 35595 
0 850 26483 
0 850 17958 
0 850 3527 
0 850 67 
0 850 8086 
0 850 10171 
0 850 10994 
0 850 2719 
0 885 1087 
0 885 2606 
0 885 1533 
0 885 5488 
0 885 996 
0 885 2192 
0 885 18129 
0 885 636 
0 885 16506 
0 885 6447 
0 885 4020 
0 885 34471 
0 885 5847 
0 885 29468 
0 885 17768 
0 885 14834 
0 885 13702 
0 885 5090 
0 885 22387 
0 885 27752 
0 885 27207 
0 885 34957 
0 885 19125 
0 885 20139 
0 885 20044 
0 885 16630 
0 885 2205 
0 885 19113 
0 885 10983 
0 885 232 
0 885 4994 
0 885 44012 
0 885 30422 
0 885 39276 
0 885 19759 
0 885 24076 
0 885 35014 
0 885 33115 
0 885 32698 
0 885 3669 
0 885 36465 
0 885 4812 
0 885 32045 
0 885 22432 
0 885 35595 
0 885 26483 
0 885 17958 
0 885 3527 
0 885 8086 
0 885 10171 
0 911 29571 
0 884 1878 
0 884 8645 
0 884 40174 
0 884 17079 
0 884 36318 
0 884 4290 
0 884 17871 
0 884 6 
0 884 4081 
0 884 38480 
0 884 38563 
0 884 1313 
0 884 10003 
0 884 32685 
0 884 23083 
0 884 43239 
0 884 15320 
0 884 28011 
0 884 2652 
0 884 4815 
0 884 19555 
0 884 32352 
0 884 43358 
0 884 6960 
0 884 2731 
0 884 19802 
0 884 27329 
0 884 10743 
0 884 2025 
0 884 24362 
0 884 15930 
0 884 43533 
0 884 165 
0 884 4590 
0 884 2789 
0 884 42193 
0 884 23935 
0 884 12020 
0 884 38566 
0 884 5450 
0 884 14222 
0 884 12968 
0 884 8405 
0 884 40138 
0 884 19385 
0 884 27285 
0 884 34589 
0 884 12753 
0 884 19302 
0 884 42029 
0 884 28315 
0 884 19682 
0 884 40355 
0 884 33939 
0 884 27829 
0 884 6060 
0 884 6094 
0 884 8758 
0 884 10254 
0 884 67 
0 884 10994 
0 884 2719 
0 854 19678 
0 854 22247 
0 854 8645 
0 854 37055 
0 854 22333 
0 854 24869 
0 854 5273 
0 854 31243 
0 854 29875 
0 854 4290 
0 854 8063 
0 854 43815 
0 854 23988 
0 854 4173 
0 855 37634 
0 855 12285 
0 855 24442 
0 855 19450 
0 855 17741 
0 855 16364 
0 855 35532 
0 855 38010 
0 855 18170 
0 855 40880 
0 855 20684 
0 855 34225 
0 855 28531 
0 855 22302 
0 855 15832 
0 855 38656 
0 855 25250 
0 855 41338 
0 855 35454 
0 855 7622 
0 855 40861 
0 855 43088 
0 855 16193 
0 855 41730 
0 855 40580 
0 855 28980 
0 855 34959 
0 855 28670 
0 855 8660 
0 855 42051 
0 855 9478 
0 855 30988 
0 855 27244 
0 855 38839 
0 855 39859 
0 855 24007 
0 855 30279 
0 855 41324 
0 855 33121 
0 855 25287 
0 855 10511 
0 855 19329 
0 855 32606 
0 855 14148 
0 855 26115 
0 855 37689 
0 855 40364 
0 855 5468 
0 855 41545 
0 962 35443 
0 962 40783 
0 895 15472 
0 895 23310 
0 895 29118 
0 895 36115 
0 895 30601 
0 895 6547 
0 895 15333 
0 895 19997 
0 895 35474 
0 895 24963 
0 895 37150 
0 895 29800 
0 895 10483 
0 895 33383 
0 895 27387 
0 895 32266 
0 895 7003 
0 895 555 
0 895 25791 
0 895 714 
0 848 36115 
0 848 30601 
0 848 6547 
0 848 555 
0 848 714 
0 894 34225 
0 894 37009 
0 894 39553 
0 894 21101 
0 894 9933 
0 894 23999 
0 894 24263 
0 894 32827 
0 894 18389 
0 894 35254 
0 894 2786 
0 894 22692 
0 894 28849 
0 894 34220 
0 894 41247 
0 894 38703 
0 894 5257 
0 894 37589 
0 894 16498 
0 894 29888 
0 894 2259 
0 894 447 
0 894 38071 
0 894 26394 
0 894 24216 
0 894 25501 
0 894 38153 
0 894 21620 
0 894 29222 
0 894 34284 
0 894 42845 
0 894 42903 
0 894 29990 
0 894 15453 
0 894 43762 
0 894 34585 
0 894 7873 
0 894 13446 
0 894 36458 
0 894 31248 
0 894 14502 
0 894 8925 
0 894 1147 
0 894 714 
0 894 1545 
0 894 42878 
0 894 3272 
0 894 673 
0 894 36780 
0 849 3272 
0 849 673 
0 863 10263 
0 862 4378 
0 862 17913 
0 860 4102 
0 821 4378 
0 821 17913 
0 820 10263 
0 859 4102 
0 826 4102 
0 884 3699 
0 884 10499 
0 884 14150 
0 884 40616 
0 884 17701 
0 884 27933 
0 884 35791 
0 884 2939 
0 884 16820 
0 884 29649 
0 884 33990 
0 884 23470 
0 884 13331 
0 884 15552 
0 884 21713 
0 884 16179 
0 884 12832 
0 884 8339 
0 884 42007 
0 884 29880 
0 884 30701 
0 884 21627 
0 884 18325 
0 884 17022 
0 884 9751 
0 884 22112 
0 884 10584 
0 884 17283 
0 884 24938 
0 884 26367 
0 884 19985 
0 884 36577 
0 884 26467 
0 884 12443 
0 884 32524 
0 884 24272 
0 884 16653 
0 884 27590 
0 884 19972 
0 884 21363 
0 884 11083 
0 884 21556 
0 884 17742 
0 884 13370 
0 884 16032 
0 884 31678 
0 884 36461 
0 884 12060 
0 884 23244 
0 884 32826 
0 884 33156 
0 884 9953 
0 884 27114 
0 884 23073 
0 884 24704 
0 884 20070 
0 884 13294 
0 884 4949 
0 884 29440 
0 884 6983 
0 884 6516 
0 884 24439 
0 884 21625 
0 884 27398 
0 884 34652 
0 884 10334 
0 884 20180 
0 884 28297 
0 884 19969 
0 884 1664 
0 884 28182 
0 884 29376 
0 884 15718 
0 884 942 
0 884 22207 
0 884 10851 
0 884 8446 
0 884 33462 
0 884 8707 
0 884 26480 
0 884 10932 
0 884 32561 
0 884 27156 
0 884 21778 
0 884 2863 
0 884 21342 
0 884 24169 
0 884 2181 
0 884 9756 
0 884 12899 
0 884 21187 
0 884 18213 
0 884 21206 
0 884 26884 
0 884 5731 
0 884 31178 
0 884 9518 
0 884 18893 
0 884 3796 
0 884 9440 
0 884 30702 
0 884 11127 
0 884 33440 
0 884 28231 
0 884 33085 
0 884 14611 
0 884 6033 
0 884 39102 
0 884 1792 
0 884 41721 
0 884 35359 
0 884 10906 
0 884 33999 
0 884 3806 
0 884 8397 
0 884 19394 
0 884 1178 
0 884 27894 
0 884 3138 
0 884 33303 
0 884 33117 
0 884 33958 
0 884 13611 
0 884 24361 
0 884 588 
0 884 27880 
0 884 25418 
0 884 32514 
0 884 4707 
0 884 17929 
0 884 27990 
0 884 33835 
0 884 28786 
0 884 17235 
0 884 17508 
0 884 6037 
0 884 7677 
0 884 11672 
0 884 29948 
0 884 9780 
0 884 21254 
0 884 9081 
0 884 34332 
0 884 5030 
0 884 27945 
0 884 5258 
0 884 16962 
0 884 38349 
0 884 33825 
0 884 41643 
0 884 32931 
0 884 36881 
0 884 18544 
0 884 13488 
0 884 22585 
0 884 27116 
0 884 41673 
0 884 23554 
0 884 29240 
0 884 14091 
0 884 39063 
0 884 13540 
0 884 4306 
0 884 36143 
0 884 27537 
0 884 10220 
0 884 23228 
0 884 30584 
0 884 21238 
0 884 26786 
0 884 14975 
0 884 26354 
0 884 21820 
0 884 33292 
0 884 37107 
0 884 2752 
0 884 740 
0 884 27015 
0 884 33057 
0 884 12997 
0 854 3621 
0 854 6161 
0 854 1541 
0 854 1502 
0 854 5101 
0 854 10714 
0 854 406 
0 854 1553 
0 854 8139 
0 854 6989 
0 854 10741 
0 854 2595 
0 854 15709 
0 854 11522 
0 854 16000 
0 854 2556 
0 854 74 
0 854 5626 
0 854 1384 
0 854 1823 
0 854 1617 
0 854 175 
0 854 4205 
0 854 17203 
0 854 383 
0 854 4748 
0 854 1375 
0 854 34598 
0 854 24781 
0 854 13128 
0 854 31278 
0 854 14598 
0 854 26035 
0 854 9716 
0 854 11343 
0 854 25667 
0 854 12444 
0 854 23208 
0 854 19186 
0 854 21233 
0 854 30055 
0 854 16343 
0 854 33399 
0 854 17701 
0 854 20274 
0 854 33572 
0 854 4503 
0 854 13595 
0 854 27933 
0 854 25795 
0 854 27489 
0 854 28609 
0 854 13645 
0 854 35791 
0 854 37802 
0 854 19963 
0 854 31262 
0 854 23828 
0 854 2939 
0 854 35826 
0 854 12765 
0 854 19256 
0 854 21446 
0 854 34660 
0 854 436 
0 854 16820 
0 854 17866 
0 854 30594 
0 854 39369 
0 854 27688 
0 854 19705 
0 854 21111 
0 854 42215 
0 854 29649 
0 854 26789 
0 854 7486 
0 854 19171 
0 854 39430 
0 854 6124 
0 854 32699 
0 854 33733 
0 854 18592 
0 854 12404 
0 854 24589 
0 854 8291 
0 854 6204 
0 854 33990 
0 854 18721 
0 854 7786 
0 854 33433 
0 854 5785 
0 854 23470 
0 854 27595 
0 854 16827 
0 854 30645 
0 854 29471 
0 854 16481 
0 854 28747 
0 854 17178 
0 854 17590 
0 854 21796 
0 854 26576 
0 854 11139 
0 854 40843 
0 854 7225 
0 854 7826 
0 854 20593 
0 854 7966 
0 854 29895 
0 854 13331 
0 854 13332 
0 854 22450 
0 854 16881 
0 854 32186 
0 854 20817 
0 854 24812 
0 854 24884 
0 854 1894 
0 854 24227 
0 854 15519 
0 854 26187 
0 854 31088 
0 854 29012 
0 854 19325 
0 854 43137 
0 854 30593 
0 854 33024 
0 854 20338 
0 854 2736 
0 854 26690 
0 854 22174 
0 854 33222 
0 854 27007 
0 854 6290 
0 854 5891 
0 854 10474 
0 854 18006 
0 854 5314 
0 854 10567 
0 854 28176 
0 854 10304 
0 854 19546 
0 854 23680 
0 854 19773 
0 854 11016 
0 854 23952 
0 854 34378 
0 854 7198 
0 854 2976 
0 854 21681 
0 854 8050 
0 854 3711 
0 854 10725 
0 854 42399 
0 854 26039 
0 854 9365 
0 854 16110 
0 854 8900 
0 854 21993 
0 854 4860 
0 854 32241 
0 854 9640 
0 854 20652 
0 854 5767 
0 854 12849 
0 854 35177 
0 854 17627 
0 854 15552 
0 854 7489 
0 854 23749 
0 854 43589 
0 854 21873 
0 854 17110 
0 854 6167 
0 854 18289 
0 854 5779 
0 854 5249 
0 854 9686 
0 854 1931 
0 854 22528 
0 854 5123 
0 854 2252 
0 854 10862 
0 854 14065 
0 854 13033 
0 854 4664 
0 854 19978 
0 854 31934 
0 854 38236 
0 854 42781 
0 854 22920 
0 854 5072 
0 854 22620 
0 854 37706 
0 854 38944 
0 854 13226 
0 854 14518 
0 854 37174 
0 854 2034 
0 854 5897 
0 854 16580 
0 854 11593 
0 854 20522 
0 854 25769 
0 854 29160 
0 854 26763 
0 854 40175 
0 854 21713 
0 854 33267 
0 854 32210 
0 854 6269 
0 854 9834 
0 854 24962 
0 854 2037 
0 854 16179 
0 854 19427 
0 854 8624 
0 854 24815 
0 854 23165 
0 854 16920 
0 854 9969 
0 854 14966 
0 854 41071 
0 854 19594 
0 854 42240 
0 854 12832 
0 854 20689 
0 854 12992 
0 854 23879 
0 854 38805 
0 854 43691 
0 854 944 
0 853 10313 
0 853 3977 
0 853 30824 
0 853 2845 
0 853 10881 
0 853 11751 
0 853 10344 
0 853 22912 
0 853 16019 
0 853 15361 
0 853 24764 
0 853 27936 
0 853 3279 
0 853 25897 
0 853 4440 
0 853 9408 
0 853 14475 
0 853 38340 
0 853 2498 
0 851 8339 
0 851 11083 
0 851 4949 
0 851 942 
0 851 9756 
0 851 1792 
0 851 1178 
0 851 11672 
0 851 27116 
0 851 4306 
0 851 21238 
0 850 3699 
0 850 14150 
0 850 26367 
0 850 21556 
0 850 27880 
0 850 25418 
0 850 740 
0 829 3699 
0 852 4431 
0 852 9154 
0 852 2493 
0 852 7112 
0 852 19603 
0 852 9198 
0 852 9897 
0 852 2542 
0 852 16805 
0 852 10401 
0 852 26558 
0 852 2377 
0 852 38913 
0 852 11067 
0 852 6469 
0 852 6321 
0 852 3912 
0 852 5700 
0 852 8430 
0 852 29145 
0 852 4572 
0 852 9473 
0 852 3906 
0 852 35619 
0 852 938 
0 852 30852 
0 852 10101 
0 852 4997 
0 852 1691 
0 852 11196 
0 852 7740 
0 852 15561 
0 852 8744 
0 852 8501 
0 852 8914 
0 852 8337 
0 852 23311 
0 852 1879 
0 852 14972 
0 852 6278 
0 852 25449 
0 852 27282 
0 852 15621 
0 852 15188 
0 852 11257 
0 852 2131 
0 819 3621 
0 819 6161 
0 819 1541 
0 819 1502 
0 819 5101 
0 819 10714 
0 819 406 
0 819 1553 
0 819 8139 
0 819 6989 
0 819 10741 
0 819 2595 
0 819 11522 
0 819 16000 
0 819 2556 
0 819 74 
0 819 5626 
0 819 1384 
0 819 1823 
0 819 1617 
0 819 175 
0 819 4205 
0 819 17203 
0 819 383 
0 819 4748 
0 819 1375 
0 855 41449 
0 855 39640 
0 855 30954 
0 855 19159 
0 855 1569 
0 855 26316 
0 855 2300 
0 855 7121 
0 855 4626 
0 894 2361 
0 894 33801 
0 894 40752 
0 894 953 
0 894 42702 
0 894 4770 
0 894 6102 
0 894 11641 
0 894 8973 
0 894 3618 
0 894 10040 
0 894 43302 
0 894 42595 
0 894 12878 
0 894 31872 
0 894 28744 
0 894 3386 
0 894 36640 
0 894 33963 
0 894 16474 
0 894 41921 
0 894 34663 
0 894 26192 
0 894 1155 
0 894 30664 
0 894 20177 
0 894 3430 
0 894 15853 
0 894 25916 
0 894 16778 
0 894 38346 
0 894 9227 
0 894 9260 
0 894 9217 
0 894 38504 
0 894 39967 
0 894 24602 
0 894 41554 
0 894 41883 
0 894 10367 
0 894 28422 
0 894 43448 
0 894 1023 
0 894 30499 
0 894 38128 
0 894 24083 
0 894 3056 
0 894 28897 
0 894 19552 
0 894 34489 
0 894 11565 
0 894 5341 
0 894 31320 
0 894 23401 
0 894 9457 
0 894 34982 
0 894 15595 
0 894 516 
0 894 28279 
0 894 23368 
0 894 37632 
0 894 39470 
0 894 10796 
0 894 20156 
0 894 23158 
0 894 42349 
0 894 37235 
0 894 38708 
0 894 41891 
0 894 24323 
0 894 38117 
0 894 621 
0 894 25308 
0 894 14858 
0 894 42242 
0 894 21558 
0 894 39719 
0 894 36367 
0 894 31860 
0 894 36034 
0 894 30927 
0 894 6798 
0 894 34665 
0 894 32184 
0 894 17400 
0 894 2335 
0 894 40162 
0 894 14734 
0 894 31995 
0 894 27756 
0 894 6779 
0 852 4023 
0 852 9670 
0 852 29035 
0 852 21242 
0 852 21266 
0 852 13431 
0 852 16579 
0 852 35916 
0 852 21460 
0 849 2361 
0 849 3386 
0 849 1155 
0 849 9227 
0 849 1023 
0 849 9457 
0 849 25308 
0 849 6798 
0 849 2335 
0 849 6779 
0 819 3702 
0 819 9332 
0 819 8236 
0 819 7188 
0 819 6568 
0 819 6181 
0 819 8192 
0 819 15384 
0 819 719 
0 819 6600 
0 819 18117 
0 819 2795 
0 819 6634 
0 819 2547 
0 819 2361 
0 855 17666 
0 855 5434 
0 855 15665 
0 855 8347 
0 855 31054 
0 855 15497 
0 855 43136 
0 855 40379 
0 855 5370 
0 855 3832 
0 855 32205 
0 855 41890 
0 855 29629 
0 855 40752 
0 855 21195 
0 855 7493 
0 855 35497 
0 855 38661 
0 855 15401 
0 855 28257 
0 855 15009 
0 855 23257 
0 855 18216 
0 855 1244 
0 855 40548 
0 855 1812 
0 855 40604 
0 855 33708 
0 855 43246 
0 855 6795 
0 855 35198 
0 855 5236 
0 855 28627 
0 855 37365 
0 855 35390 
0 855 18119 
0 855 32945 
0 855 3074 
0 855 9202 
0 855 32995 
0 855 27272 
0 855 17287 
0 855 26854 
0 855 39122 
0 855 30932 
0 855 33125 
0 855 9821 
0 855 9509 
0 855 8806 
0 855 19564 
0 855 25421 
0 855 4770 
0 855 18002 
0 855 16543 
0 855 29697 
0 855 2245 
0 855 10700 
0 855 9310 
0 855 43253 
0 855 20725 
0 855 36400 
0 855 36808 
0 855 5368 
0 854 3702 
0 854 9332 
0 854 8236 
0 854 7188 
0 854 6568 
0 854 6181 
0 854 8192 
0 854 15384 
0 854 719 
0 854 6600 
0 854 18117 
0 854 2795 
0 854 6634 
0 854 2547 
0 854 43857 
0 854 25243 
0 854 40950 
0 854 23849 
0 854 38906 
0 938 5826 
0 936 26379 
0 936 44973 
0 932 44896 
0 778 44432 
0 778 25382 
0 778 16046 
0 778 43193 
0 778 28558 
0 778 31723 
0 778 30025 
0 778 3991 
0 778 34706 
0 778 42770 
0 776 35829 
0 776 17028 
0 776 42078 
0 776 35860 
0 776 36569 
0 776 31984 
0 776 12572 
0 776 32141 
0 776 32798 
0 776 43178 
0 776 39876 
0 776 16960 
0 776 35137 
0 776 412 
0 776 36878 
0 776 30110 
0 776 37029 
0 776 41509 
0 776 30413 
0 776 35306 
0 776 38068 
0 776 13932 
0 776 37145 
0 776 30714 
0 776 34102 
0 776 22009 
0 776 33308 
0 776 44665 
0 776 20051 
0 776 33753 
0 776 31151 
0 776 15657 
0 776 34295 
0 776 29088 
0 776 10880 
0 776 3728 
0 776 25882 
0 776 14711 
0 776 30573 
0 776 31252 
0 776 20788 
0 776 42640 
0 776 17639 
0 776 6443 
0 776 17169 
0 776 28963 
0 776 36824 
0 776 34272 
0 776 7555 
0 776 3326 
0 776 34623 
0 776 1927 
0 776 25990 
0 776 29736 
0 776 590 
0 776 24751 
0 776 13032 
0 776 24666 
0 776 21103 
0 776 20835 
0 776 30270 
0 776 25367 
0 776 25307 
0 776 25697 
0 776 28880 
0 776 5003 
0 776 16703 
0 776 5603 
0 776 9039 
0 776 3575 
0 776 14024 
0 776 21529 
0 776 545 
0 776 10253 
0 935 43100 
0 779 21826 
0 777 32011 
0 777 22909 
0 777 41441 
0 777 11539 
0 777 30854 
0 777 27901 
0 777 34811 
0 777 19091 
0 777 44821 
0 777 20026 
0 777 37432 
0 777 19387 
0 777 18522 
0 777 23090 
0 777 9479 
0 777 31351 
0 777 37380 
0 777 32301 
0 777 40314 
0 777 25951 
0 777 40939 
0 777 11929 
0 777 16709 
0 777 29306 
0 777 9548 
0 777 39936 
0 777 37044 
0 777 25088 
0 777 7384 
0 775 19667 
0 775 35091 
0 775 35475 
0 775 8154 
0 775 36224 
0 775 38989 
0 775 22269 
0 775 28267 
0 775 40581 
0 775 7385 
0 775 34361 
0 775 28825 
0 775 33382 
0 775 13213 
0 775 41793 
0 775 22289 
0 775 37315 
0 775 31282 
0 775 25317 
0 775 33385 
0 775 34847 
0 775 38414 
0 775 26498 
0 775 22032 
0 775 15687 
0 775 36897 
0 775 33295 
0 775 31157 
0 775 23366 
0 775 29114 
0 775 21961 
0 775 30465 
0 775 13103 
0 775 6295 
0 775 12464 
0 775 31477 
0 775 24794 
0 775 18701 
0 775 29840 
0 775 24912 
0 775 22918 
0 775 22253 
0 775 24375 
0 775 23641 
0 775 8654 
0 775 2899 
0 775 26710 
0 775 28202 
0 775 23550 
0 775 26185 
0 774 2159 
0 944 45293 
0 774 42919 
0 774 43278 
0 774 30167 
0 774 33553 
0 774 21352 
0 774 41059 
0 774 41879 
0 774 41180 
0 774 36570 
0 774 40341 
0 774 38330 
0 774 42879 
0 774 43935 
0 774 11842 
0 774 41184 
0 774 39882 
0 774 36603 
0 774 13828 
0 774 5086 
0 774 5038 
0 774 42697 
0 774 28299 
0 774 35339 
0 774 32291 
0 774 37443 
0 774 34603 
0 774 12620 
0 774 5639 
0 774 20715 
0 774 33781 
0 774 11716 
0 773 40615 
0 773 21309 
0 773 44409 
0 773 17162 
0 773 40400 
0 773 42515 
0 773 35795 
0 775 39061 
0 775 37407 
0 775 33517 
0 775 9600 
0 775 25158 
0 775 11858 
0 775 37609 
0 775 21721 
0 775 24860 
0 775 31806 
0 775 26892 
0 922 34017 
0 950 18713 
1 662 2484 
1 662 2871 
1 662 7760 
1 662 19273 
1 1890 17954 
1 1890 21833 
1 1890 22628 
1 1890 43593 
1 1890 13524 
1 1890 26019 
1 515 5595 
1 515 29027 
1 515 5620 
1 515 23076 
1 1689 8353 
1 1689 3300 
1 1692 25731 
1 1692 5704 
1 476 7276 
1 563 13581 
1 1691 19685 
1 1691 2877 
1 1691 22113 
1 1691 11733 
1 1691 27660 
1 1691 24374 
1 562 7052 
1 561 32837 
1 514 5595 
1 514 29027 
1 514 5620 
1 514 17339 
1 514 6767 
1 1695 19685 
1 477 7052 
1 477 15964 
1 477 7276 
1 491 16918 
1 491 9737 
1 491 21850 
1 491 30925 
1 491 20238 
1 491 38887 
1 478 7052 
1 478 15964 
1 479 7052 
1 479 408 
1 479 15964 
1 660 11699 
1 660 2514 
1 660 34826 
1 660 9294 
1 660 16478 
1 660 1652 
1 660 27224 
1 660 667 
1 559 16889 
1 1694 26280 
1 1694 3135 
1 1694 16889 
1 1694 25497 
1 1697 32190 
1 1697 35738 
1 1697 3974 
1 487 408 
1 487 16918 
1 487 9168 
1 487 19478 
1 487 6410 
1 1693 37560 
1 1693 5723 
1 1693 32190 
1 555 33393 
1 554 17574 
1 494 33235 
1 494 4135 
1 494 33887 
1 494 37886 
1 1850 3677 
1 1850 5518 
1 1850 26605 
1 1850 38212 
1 1851 280 
1 1851 5441 
1 1851 31451 
1 1851 10779 
1 1851 40795 
1 1851 15717 
1 1851 5114 
1 516 5595 
1 516 4191 
1 516 5620 
1 516 4935 
1 516 23076 
1 485 408 
1 485 4655 
1 485 35226 
1 485 19478 
1 485 32302 
1 485 6410 
1 1856 5518 
1 1856 26605 
1 1856 38212 
1 1856 23591 
1 1856 15572 
1 1856 5441 
1 1856 24842 
1 1856 31451 
1 1856 10779 
1 1856 2953 
1 1856 11154 
1 1856 40795 
1 1856 8293 
1 1856 39850 
1 1856 1486 
1 1856 38751 
1 1856 15717 
1 1856 15869 
1 1856 5114 
1 1856 40473 
1 1856 3649 
1 1856 10309 
1 1856 32416 
1 513 17339 
1 513 6767 
1 486 408 
1 486 19478 
1 486 32302 
1 486 6410 
1 488 16918 
1 488 9168 
1 488 21850 
1 488 8215 
1 488 14097 
1 488 32302 
1 488 6410 
1 488 6614 
1 489 8215 
1 489 14097 
1 1895 3677 
1 1895 3259 
1 1895 6871 
1 1895 21682 
1 1895 6529 
1 1895 14921 
1 1895 12568 
1 1895 3349 
1 490 21850 
1 490 8215 
1 490 14097 
1 490 6614 
1 517 4935 
1 517 23076 
1 493 9737 
1 493 38887 
1 493 37886 
1 493 6554 
1 492 9737 
1 492 20238 
1 484 9560 
1 484 32302 
1 1875 3677 
1 1875 3259 
1 1875 6871 
1 1875 21682 
1 1875 6529 
1 1875 14921 
1 1875 12568 
1 1875 8772 
1 1875 6518 
1 1875 12719 
1 1875 8249 
1 1875 21538 
1 1875 24795 
1 1875 7681 
1 1875 5523 
1 1875 2531 
1 1875 19783 
1 1875 582 
1 1875 6584 
1 1875 15363 
1 1875 11501 
1 1875 21534 
1 1875 12807 
1 1875 10585 
1 1875 2916 
1 1875 14784 
1 1875 9244 
1 1875 21305 
1 1875 11507 
1 1875 7778 
1 1875 10492 
1 1875 6604 
1 1875 1 
1 1875 6946 
1 1875 13338 
1 1875 2605 
1 1875 3458 
1 1875 3924 
1 1875 26605 
1 1875 12887 
1 1875 8912 
1 1875 27846 
1 1875 16987 
1 1875 21677 
1 1875 3120 
1 1875 10529 
1 1875 12821 
1 1875 5277 
1 1875 31093 
1 1875 12023 
1 1875 3934 
1 1875 30066 
1 1875 17705 
1 1875 29837 
1 1875 2460 
1 1875 15394 
1 1875 12427 
1 1875 1287 
1 1875 38212 
1 1875 8061 
1 1875 4560 
1 1875 1249 
1 1875 11687 
1 1875 917 
1 1875 9243 
1 1875 25524 
1 1875 6603 
1 1875 7761 
1 1875 280 
1 1875 9385 
1 1875 19282 
1 1875 4603 
1 1875 16795 
1 1875 4827 
1 1875 3845 
1 1875 17419 
1 1875 5441 
1 1875 15291 
1 1875 16854 
1 1875 6108 
1 1875 7214 
1 1875 1438 
1 1875 26290 
1 1875 2257 
1 1875 24842 
1 1875 31451 
1 1875 20125 
1 1875 18504 
1 1875 4678 
1 1875 14456 
1 1875 1585 
1 1875 10779 
1 1875 2953 
1 1875 11154 
1 1875 2179 
1 1875 4629 
1 1875 35624 
1 1875 40795 
1 1875 3397 
1 1875 8293 
1 1875 4 
1 1875 39850 
1 1875 1486 
1 1875 38751 
1 1875 6454 
1 1875 5114 
1 1857 3677 
1 1857 3259 
1 1857 6871 
1 1857 21682 
1 1857 6529 
1 1857 14921 
1 1857 12568 
1 1857 3349 
1 1857 8772 
1 1857 6518 
1 1857 12719 
1 1857 8249 
1 1857 21538 
1 1857 24795 
1 1857 7681 
1 1857 5523 
1 1857 2531 
1 1857 19783 
1 1857 582 
1 1857 6584 
1 1857 11501 
1 1857 4157 
1 1857 7037 
1 1857 10585 
1 1857 1751 
1 1857 6749 
1 1857 9244 
1 1857 29242 
1 1857 11507 
1 1857 10492 
1 1857 6604 
1 1857 1 
1 1857 2649 
1 1857 13338 
1 1857 4502 
1 1857 112 
1 1857 3924 
1 1857 12887 
1 1857 8912 
1 1857 31194 
1 1857 27846 
1 1857 10446 
1 1857 14104 
1 1857 3120 
1 1857 3105 
1 1857 10060 
1 1857 16118 
1 1857 971 
1 1857 5277 
1 1857 31093 
1 1857 12023 
1 1857 3934 
1 1857 30066 
1 1857 17705 
1 1857 29837 
1 1857 2460 
1 1857 15394 
1 1857 29105 
1 1857 19957 
1 1857 30894 
1 1857 8061 
1 1857 4560 
1 1857 1249 
1 1857 11687 
1 1857 917 
1 1857 9243 
1 1857 25524 
1 1857 6603 
1 1857 19692 
1 1857 34991 
1 1857 7761 
1 1857 22241 
1 1857 9385 
1 1857 19282 
1 1857 4603 
1 1857 16795 
1 1857 4827 
1 1857 3845 
1 1857 17419 
1 1857 24600 
1 1857 15291 
1 1857 16854 
1 1857 6108 
1 1857 7214 
1 1857 1438 
1 1857 26290 
1 1857 2257 
1 1857 7340 
1 1857 22428 
1 1857 2984 
1 1857 20125 
1 1857 18504 
1 1857 4678 
1 1857 14456 
1 1857 1585 
1 1857 11456 
1 1857 9950 
1 1857 15266 
1 1857 2179 
1 1857 4629 
1 1857 1379 
1 1857 35624 
1 1857 2187 
1 1857 3397 
1 1857 4 
1 1857 16834 
1 1857 9760 
1 1857 6748 
1 1857 585 
1 1857 2269 
1 1857 37810 
1 1857 594 
1 535 13237 
1 533 13237 
1 534 13237 
1 534 34216 
1 1820 32302 
1 1846 32302 
1 1846 5360 
1 1845 32302 
1 1879 1381 
1 1879 971 
1 1879 45 
1 1879 30894 
1 1879 34991 
1 1879 22241 
1 1879 24600 
1 1879 5821 
1 1879 7340 
1 1879 2984 
1 1879 11456 
1 1879 9950 
1 1879 15266 
1 1879 1379 
1 1879 2187 
1 1879 16834 
1 1879 6748 
1 1879 2269 
1 1879 37810 
1 1879 13990 
1 1879 40751 
1 1879 594 
1 1879 3230 
1 1879 40473 
1 1879 10309 
1 1879 32416 
1 1879 9560 
1 1848 32302 
1 1847 32302 
1 1847 5360 
1 1849 3557 
1 1822 5360 
1 1844 3557 
1 1894 8772 
1 1894 6518 
1 1894 12719 
1 1894 8249 
1 1894 21538 
1 1824 5360 
1 1843 3557 
1 1839 6554 
1 1864 1751 
1 1864 112 
1 1864 13323 
1 1864 11152 
1 1864 30894 
1 1864 2188 
1 1864 661 
1 1864 9371 
1 1864 24600 
1 1864 12338 
1 1864 22428 
1 1864 2984 
1 1864 20708 
1 1864 15266 
1 1864 976 
1 1864 508 
1 1864 11233 
1 1864 2054 
1 1864 13022 
1 1864 585 
1 1864 5454 
1 1864 16566 
1 1864 7769 
1 1864 37798 
1 1864 3667 
1 1864 41768 
1 1864 7838 
1 1842 33515 
1 1840 6554 
1 1827 33515 
1 1863 13323 
1 1863 11152 
1 1863 2188 
1 1863 9371 
1 1863 12338 
1 1863 13022 
1 1863 3667 
1 1863 7838 
1 1863 34216 
1 1828 33515 
1 1880 21538 
1 1880 2916 
1 1880 1381 
1 1880 971 
1 1880 45 
1 1880 30894 
1 1880 22241 
1 1880 24600 
1 1880 2984 
1 1880 20708 
1 1880 976 
1 1880 508 
1 1880 11233 
1 1880 2054 
1 1880 37810 
1 1880 13990 
1 1880 5454 
1 1880 16566 
1 1880 3230 
1 1880 7769 
1 1880 41768 
1 1861 143 
1 1861 17954 
1 1861 21833 
1 1861 22628 
1 1861 42476 
1 1861 43593 
1 1861 13524 
1 1861 34216 
1 1882 1657 
1 1882 16533 
1 1882 7970 
1 1882 43330 
1 1874 17954 
1 1874 21833 
1 1874 18857 
1 1874 22628 
1 1874 5939 
1 1874 43593 
1 1874 13524 
1 1874 15677 
1 1874 15867 
1 1874 13788 
1 1873 18857 
1 1873 5939 
1 1873 15677 
1 1873 15867 
1 1873 13788 
1 1873 16154 
1 1883 143 
1 1883 1657 
1 1883 17954 
1 1883 21833 
1 1883 16533 
1 1883 7970 
1 1883 22628 
1 1883 43330 
1 1883 42476 
1 1883 43593 
1 1883 13524 
1 1889 17954 
1 1889 21833 
1 1889 22628 
1 1889 43593 
1 1889 13524 
1 1889 26019 
1 1862 1058 
1 1862 13323 
1 1862 8865 
1 1862 4090 
1 1862 11152 
1 1862 5766 
1 1862 1239 
1 1862 12180 
1 1862 24219 
1 1862 2188 
1 1862 4587 
1 1862 5390 
1 1862 9371 
1 1862 24881 
1 1862 15767 
1 1862 6825 
1 1862 6794 
1 1862 21037 
1 1862 1047 
1 1862 12338 
1 1862 993 
1 1862 3392 
1 1862 5550 
1 1862 3670 
1 1862 3487 
1 1862 3044 
1 1862 26073 
1 1862 33153 
1 1862 25825 
1 1862 5969 
1 1862 7294 
1 1862 1159 
1 1862 2465 
1 1862 3061 
1 1862 30775 
1 1862 6352 
1 1862 10027 
1 1862 97 
1 1862 8873 
1 1862 2422 
1 1862 3469 
1 1862 7829 
1 1862 3008 
1 1862 18175 
1 1862 5873 
1 1862 2406 
1 1862 30437 
1 1862 1323 
1 1862 13022 
1 1862 2358 
1 1862 26173 
1 1862 1692 
1 1862 3199 
1 1862 14353 
1 1862 5149 
1 1862 11266 
1 1862 4615 
1 1862 12591 
1 1862 1064 
1 1862 8449 
1 1862 1837 
1 1862 29652 
1 1862 6805 
1 1862 5053 
1 1862 483 
1 1862 747 
1 1862 21900 
1 1862 6228 
1 1862 143 
1 1862 1657 
1 1862 21833 
1 1862 3100 
1 1862 16533 
1 1862 7970 
1 1862 22628 
1 1862 43330 
1 1881 21538 
1 1881 2916 
1 1881 1058 
1 1881 2715 
1 1881 1381 
1 1881 13323 
1 1881 8865 
1 1881 6633 
1 1881 11152 
1 1881 30214 
1 1881 1239 
1 1881 8989 
1 1881 18020 
1 1881 12180 
1 1881 4587 
1 1881 22525 
1 1881 12534 
1 1881 9371 
1 1881 24881 
1 1881 15767 
1 1881 6794 
1 1881 16524 
1 1881 12338 
1 1881 5354 
1 1881 3392 
1 1881 14409 
1 1881 5550 
1 1881 3487 
1 1881 3044 
1 1881 3188 
1 1881 26073 
1 1881 20708 
1 1881 6344 
1 1881 13559 
1 1881 4249 
1 1881 5969 
1 1881 29116 
1 1881 6177 
1 1881 199 
1 1881 1159 
1 1881 2465 
1 1881 976 
1 1881 3061 
1 1881 30775 
1 1881 10027 
1 1881 12039 
1 1881 8873 
1 1881 12040 
1 1881 6389 
1 1881 508 
1 1881 3469 
1 1881 32875 
1 1881 18175 
1 1881 2406 
1 1881 4905 
1 1881 680 
1 1881 2858 
1 1881 13022 
1 1881 2358 
1 1881 26173 
1 1881 1692 
1 1881 3199 
1 1881 5149 
1 1881 10821 
1 1881 5454 
1 1881 12591 
1 1881 1064 
1 1881 8449 
1 1881 1837 
1 1881 29652 
1 1881 6805 
1 1881 7769 
1 1881 5053 
1 1881 483 
1 1881 747 
1 1881 21900 
1 1881 6228 
1 1881 1657 
1 1881 3667 
1 1881 3100 
1 1881 16533 
1 1881 7970 
1 1881 7838 
1 1881 43330 
1 1896 1058 
1 1896 8865 
1 1896 1239 
1 1896 18020 
1 1897 1058 
1 1897 8865 
1 1897 1239 
1 1897 18020 
1 1897 5390 
1 1897 1047 
1 1897 3487 
1 1897 26073 
1 1897 1159 
1 763 10550 
1 763 19273 
1 1690 10562 
1 1696 30504 
1 1696 26978 
1 1696 7437 
1 1892 15867 
1 1892 26019 
1 661 11699 
1 661 2514 
1 661 34826 
1 661 16478 
1 661 27224 
1 661 667 
1 1891 17954 
1 1891 18857 
1 1891 5939 
1 1891 4253 
1 1891 3136 
1 1891 15677 
1 1891 11317 
1 1891 43983 
1 1891 15867 
1 1891 13788 
1 1891 16154 
1 1891 43740 
1 1891 21505 
1 1891 13552 
1 1872 18857 
1 1872 5939 
1 1872 4253 
1 1872 3136 
1 1872 11317 
1 1872 43983 
1 1872 16154 
1 1872 43740 
1 1872 21505 
1 1872 13552 
0 956 44969 
1 2677 23521 
1 2677 17792 
1 2677 34011 
1 2677 1889 
1 2677 35845 
1 2677 39109 
1 2677 38685 
1 2677 42604 
1 2677 36539 
1 2677 1046 
1 2677 3872 
1 2691 23521 
1 2691 1581 
1 2691 1052 
1 2691 128 
1 2691 24011 
1 2691 17792 
1 2691 13826 
1 2691 6906 
1 2691 7661 
1 2691 16912 
1 2691 13915 
1 2691 5573 
1 2691 28497 
1 2691 1989 
1 2691 24873 
1 2691 13440 
1 2691 17412 
1 2691 4972 
1 2691 3783 
1 2691 9609 
1 2691 3525 
1 2691 14362 
1 2691 25010 
1 2691 1175 
1 2691 9427 
1 2691 7582 
1 2691 25861 
1 2691 1769 
1 2691 3586 
1 2691 23951 
1 2691 12505 
1 2691 15672 
1 2691 22715 
1 2691 29734 
1 2691 18225 
1 2691 14504 
1 2691 1254 
1 2691 18132 
1 2691 4243 
1 2691 4358 
1 2691 13660 
1 2691 16558 
1 2691 30728 
1 2691 35047 
1 2691 15826 
1 2691 4391 
1 2691 40862 
1 2691 24682 
1 2691 14411 
1 2691 18827 
1 2691 5491 
1 2691 16156 
1 2691 37868 
1 2691 29065 
1 2691 13854 
1 2691 15813 
1 2691 78 
1 2691 2210 
1 2691 18901 
1 2691 7016 
1 2691 7613 
1 2691 5266 
1 2691 12153 
1 2691 38956 
1 2691 15311 
1 2691 20071 
1 2691 22219 
1 2691 27769 
1 2691 43672 
1 2691 15966 
1 2691 9145 
1 2691 32387 
1 2709 23521 
1 2709 10757 
1 2709 1581 
1 2709 1052 
1 2709 128 
1 2709 24011 
1 2709 17792 
1 2709 13826 
1 2709 6906 
1 2709 21307 
1 2709 17810 
1 2709 13915 
1 2709 5573 
1 2709 28497 
1 2709 2611 
1 2709 24873 
1 2709 17412 
1 2709 4972 
1 2709 23457 
1 2709 34011 
1 2709 9609 
1 2709 3525 
1 2709 14362 
1 2709 25010 