ITEM: TIMESTEP
20000000
ITEM: NUMBER OF ENTRIES
908
ITEM: BOX BOUNDS ff ff ff
-0.01 0.45
-0.15 0.15
-0.08 0.1
ITEM: ENTRIES c_pwc[1] c_pwc[2] c_pwc[3] 
0 938 4521 
0 936 4921 
0 936 4070 
0 932 4939 
0 924 4383 
0 922 4383 
0 920 4249 
0 792 4249 
0 790 4383 
0 778 4070 
0 777 4070 
0 952 2249 
0 940 3837 
0 772 3837 
0 896 4760 
0 884 1768 
0 884 294 
0 884 4431 
0 884 2982 
0 884 4025 
0 884 4281 
0 884 2297 
0 884 218 
0 884 3313 
0 884 446 
0 884 2771 
0 884 3090 
0 884 834 
0 884 4728 
0 884 3476 
0 884 3812 
0 884 4165 
0 884 215 
0 884 216 
0 884 3844 
0 884 179 
0 884 4335 
0 884 1124 
0 884 2942 
0 884 755 
0 884 1546 
0 884 3285 
0 854 4536 
0 854 1671 
0 854 4246 
0 854 4889 
0 854 4785 
0 854 2807 
0 854 1938 
0 854 391 
0 854 1588 
0 854 4193 
0 854 694 
0 854 4735 
0 854 4167 
0 854 4095 
0 854 434 
0 854 4034 
0 854 3892 
0 854 3908 
0 854 2982 
0 854 3932 
0 854 4043 
0 854 887 
0 854 3461 
0 854 4556 
0 854 2539 
0 854 650 
0 854 3807 
0 854 1098 
0 854 4375 
0 854 3259 
0 854 3272 
0 854 1492 
0 854 4665 
0 854 4025 
0 854 3697 
0 854 2658 
0 850 218 
0 850 3812 
0 850 4760 
0 850 3410 
0 850 480 
0 850 216 
0 850 2863 
0 850 477 
0 850 179 
0 850 867 
0 850 3403 
0 850 228 
0 850 755 
0 850 1061 
0 748 4760 
0 918 2662 
0 916 92 
0 916 2855 
0 916 3806 
0 914 11 
0 914 92 
0 912 11 
0 910 4760 
0 885 4760 
0 885 3410 
0 885 480 
0 885 2863 
0 885 477 
0 885 867 
0 885 3403 
0 885 228 
0 885 1061 
0 853 2023 
0 853 3090 
0 853 1952 
0 853 3757 
0 853 1232 
0 853 1980 
0 853 3624 
0 853 2942 
0 853 1539 
0 853 810 
0 853 1209 
0 853 2673 
0 853 3530 
0 853 2374 
0 800 11 
0 798 92 
0 798 2855 
0 796 3806 
0 796 2662 
0 795 2662 
0 855 332 
0 852 2772 
0 852 2455 
0 852 4470 
0 852 2658 
0 852 3776 
0 852 2251 
0 852 3454 
0 852 4176 
0 852 889 
0 852 1326 
0 852 508 
0 852 1017 
0 852 3312 
0 852 891 
0 852 990 
0 852 3589 
0 852 3995 
0 852 934 
0 852 2631 
0 852 3763 
0 852 2578 
0 852 4050 
0 852 2957 
0 852 4449 
0 852 4633 
0 908 469 
0 894 2806 
0 894 4140 
0 894 2753 
0 894 4228 
0 894 3271 
0 894 2785 
0 894 4204 
0 894 3708 
0 894 2698 
0 894 380 
0 894 2505 
0 894 1497 
0 894 939 
0 894 4115 
0 894 2370 
0 894 2277 
0 894 1953 
0 894 3449 
0 894 4006 
0 894 1170 
0 894 1090 
0 894 2488 
0 894 1312 
0 894 1932 
0 855 4929 
0 855 842 
0 855 3346 
0 855 376 
0 855 1512 
0 855 3281 
0 855 654 
0 855 2344 
0 855 1118 
0 855 2806 
0 855 2524 
0 855 4037 
0 855 539 
0 855 997 
0 855 1076 
0 855 3609 
0 855 1698 
0 855 2332 
0 855 471 
0 855 3576 
0 855 1418 
0 855 744 
0 855 2801 
0 855 3671 
0 852 2126 
0 852 1742 
0 852 3613 
0 852 264 
0 852 625 
0 852 388 
0 852 1095 
0 852 1842 
0 852 4689 
0 852 2890 
0 852 1204 
0 852 202 
0 736 469 
0 895 469 
0 848 469 
0 750 469 
0 854 1814 
0 854 3601 
0 854 4531 
0 854 2130 
0 854 158 
0 854 1708 
0 854 4101 
0 854 13 
0 854 4417 
0 854 1742 
0 936 3034 
0 930 4936 
0 928 782 
0 920 2228 
0 937 2021 
0 942 792 
0 949 4203 
1 2706 653 
1 2706 3111 
1 2706 455 
1 2708 455 
1 2707 455 
1 2690 3886 
1 2710 3886 
1 2711 3886 
1 2704 653 
1 2705 653 
1 2722 653 
1 2722 3111 
1 2722 455 
1 2721 3111 
1 2721 455 
1 2698 653 
1 2698 3111 
1 2698 455 
1 2698 198 
1 2717 653 
1 2717 198 
1 2667 3886 
1 98 2174 
1 71 3886 
1 2509 4770 
1 2703 3190 
1 2702 3190 
1 2517 4770 
1 94 2174 
1 94 1350 
1 75 3886 
1 75 1456 
1 75 1107 
1 95 2174 
1 95 1350 
1 72 3886 
1 72 1456 
1 72 1107 
1 2523 4483 
1 74 1456 
1 74 1107 
1 2675 3190 
1 78 1456 
1 78 1107 
1 2658 3190 
1 92 1350 
1 77 1456 
1 77 1107 
1 73 1456 
1 73 1107 
1 2700 3190 
1 2699 3190 
1 2726 3190 
1 76 1107 
1 63 1350 
1 2512 4483 
1 2528 1107 
1 2727 3190 
1 2506 103 
1 2503 103 
1 2501 960 
0 910 97 
0 910 134 
0 909 97 
0 909 134 
0 885 245 
0 885 674 
0 885 522 
0 885 191 
0 885 189 
0 885 1099 
0 885 97 
0 885 1917 
0 885 185 
0 885 4485 
0 885 4909 
0 885 745 
0 885 106 
0 885 2550 
0 885 2645 
0 885 70 
0 885 668 
0 885 47 
0 885 927 
0 885 478 
0 885 1621 
0 885 2382 
0 885 169 
0 885 637 
0 885 1303 
0 885 85 
0 885 153 
0 885 119 
0 885 236 
0 885 397 
0 885 743 
0 885 1249 
0 885 59 
0 885 448 
0 885 180 
0 885 545 
0 885 1924 
0 885 23 
0 885 1493 
0 885 213 
0 885 1920 
0 885 3038 
0 885 2500 
0 885 3664 
0 885 1333 
0 885 167 
0 853 1619 
0 853 3622 
0 853 4098 
0 853 2016 
0 853 3008 
0 853 533 
0 853 4293 
0 853 1896 
0 853 3200 
0 853 3318 
0 853 76 
0 853 3581 
0 853 4209 
0 853 3570 
0 853 1207 
0 853 373 
0 853 2705 
0 853 4376 
0 853 2834 
0 853 741 
0 853 4430 
0 853 1236 
0 853 4726 
0 853 1468 
0 853 1498 
0 853 1876 
0 853 3603 
0 853 2611 
0 853 3728 
0 853 2464 
0 853 3894 
0 853 1951 
0 853 4322 
0 853 1382 
0 853 3993 
0 853 1940 
0 853 4441 
0 853 81 
0 853 1341 
0 853 2157 
0 853 1886 
0 853 2153 
0 853 2774 
0 853 2148 
0 853 3477 
0 853 4580 
0 853 3317 
0 853 1718 
0 853 3745 
0 853 3041 
0 853 278 
0 853 4151 
0 853 1524 
0 853 2144 
0 853 2131 
0 853 233 
0 853 4329 
0 851 444 
0 851 1249 
0 851 59 
0 851 1493 
0 851 1333 
0 851 167 
0 804 97 
0 804 134 
0 884 4678 
0 884 2988 
0 884 4225 
0 884 444 
0 884 3152 
0 884 3840 
0 884 556 
0 884 3628 
0 884 2474 
0 884 282 
0 884 4715 
0 884 2913 
0 884 1794 
0 884 1993 
0 884 4119 
0 884 3253 
0 884 2303 
0 884 2040 
0 884 4118 
0 884 4523 
0 884 4067 
0 884 3798 
0 884 3733 
0 884 2385 
0 850 245 
0 850 674 
0 850 522 
0 850 191 
0 850 189 
0 850 1099 
0 850 97 
0 850 1917 
0 850 185 
0 850 745 
0 850 106 
0 850 2550 
0 850 70 
0 850 47 
0 850 927 
0 850 478 
0 850 1621 
0 850 169 
0 850 1303 
0 850 85 
0 850 153 
0 850 119 
0 850 236 
0 850 397 
0 850 743 
0 850 448 
0 850 180 
0 850 23 
0 850 3664 
0 808 76 
0 852 1055 
0 852 4261 
0 852 821 
0 852 262 
0 852 4651 
0 852 190 
0 962 4106 
0 962 3497 
0 960 4154 
0 954 3336 
0 895 2008 
0 895 4407 
0 895 2741 
0 895 3360 
0 895 4026 
0 895 850 
0 895 3610 
0 895 3033 
0 895 3991 
0 895 2781 
0 895 2359 
0 895 537 
0 895 1142 
0 959 589 
0 751 3497 
0 894 3044 
0 894 892 
0 894 170 
0 894 2409 
0 894 2108 
0 894 2721 
0 894 2674 
0 894 2006 
0 894 884 
0 894 575 
0 894 3220 
0 894 599 
0 894 28 
0 894 3484 
0 894 4493 
0 894 20 
0 894 972 
0 894 1340 
0 894 2030 
0 894 3923 
0 894 1586 
0 894 1567 
0 894 3060 
0 894 3071 
0 894 4455 
0 894 1985 
0 894 383 
0 894 1182 
0 894 1879 
0 894 652 
0 894 252 
0 894 1165 
0 852 1540 
0 852 3748 
0 852 1719 
0 852 3201 
0 852 3198 
0 852 1125 
0 853 3315 
0 853 3890 
1 1850 864 
1 1857 4697 
1 1875 4697 
1 1875 864 
1 1856 864 
1 1862 3384 
1 1864 4697 
1 1864 340 
1 1881 4697 
1 1881 3384 
1 1881 340 
1 1880 4697 
1 1880 340 
1 562 737 
1 536 340 
1 1874 340 
1 1882 340 
1 528 340 
1 1883 340 
1 1889 340 
1 560 737 
1 485 2375 
1 486 2375 
1 486 3031 
1 1824 340 
1 1847 340 
1 487 2375 
1 488 2375 
1 488 3031 
1 489 3031 
1 490 2375 
1 490 3031 
1 491 2375 
1 491 3031 
1 1697 2085 
0 935 3687 
0 935 3948 
0 931 4752 
0 925 1273 
0 381 4831 
0 932 2996 
0 951 1788 
0 945 2638 
0 946 3207 
0 890 4218 
0 890 1957 
0 890 2617 
0 890 1243 
0 890 3264 
0 890 4854 
0 890 3694 
0 890 3862 
0 889 4128 
0 889 656 
0 889 35 
0 888 4637 
0 888 1092 
0 888 3537 
0 888 2300 
0 888 4194 
0 888 3893 
0 888 4010 
0 888 2848 
0 888 2079 
0 888 4879 
0 888 451 
0 888 3955 
0 888 4551 
0 888 1678 
0 888 3889 
0 888 4357 
0 888 881 
0 888 4844 
0 888 4303 
0 888 2699 
0 888 2624 
0 888 4295 
0 888 4351 
0 888 1604 
0 888 1691 
0 888 36 
0 888 1574 
0 888 4522 
0 888 427 
0 888 4239 
0 886 2 
0 886 379 
0 886 587 
0 886 99 
0 886 1072 
0 886 2589 
0 886 4850 
0 886 4260 
0 886 2449 
0 885 1674 
0 885 648 
0 885 2 
0 885 379 
0 885 587 
0 885 99 
0 885 2589 
0 885 4743 
0 885 3965 
0 885 1618 
0 885 2449 
0 885 3862 
0 853 1523 
0 853 4079 
0 853 4239 
0 853 3580 
0 851 648 
0 851 379 
0 851 587 
0 851 99 
0 851 2589 
0 850 1674 
0 850 2 
0 967 4876 
0 966 4876 
0 963 285 
0 963 1112 
0 961 550 
0 961 1555 
0 959 1075 
0 959 4443 
0 959 499 
0 959 1555 
0 957 504 
0 957 499 
0 955 224 
0 955 1318 
0 955 797 
0 955 3345 
0 955 2206 
0 955 3379 
0 955 619 
0 955 1946 
0 893 2088 
0 892 2178 
0 892 3984 
0 892 4172 
0 892 832 
0 892 770 
0 891 4620 
0 891 3252 
0 891 4588 
0 891 967 
0 891 2761 
0 891 2748 
0 887 4243 
0 887 4664 
0 887 1610 
0 759 224 
0 759 1318 
0 759 797 
0 759 3345 
0 759 2206 
0 759 3379 
0 759 619 
0 759 1946 
0 757 504 
0 755 4443 
0 755 499 
0 753 550 
0 753 1555 
0 751 285 
0 895 1623 
0 895 1853 
0 888 3179 
0 888 4073 
0 888 518 
0 888 2574 
0 888 1506 
0 888 1213 
0 888 2242 
0 888 1614 
0 888 3929 
0 888 991 
0 888 3961 
0 888 2435 
0 888 1031 
0 888 1873 
0 888 2655 
1 511 2175 
1 512 2175 
1 510 2175 
1 538 2175 
1 537 2175 
1 508 1295 
1 540 2175 
1 539 2175 
1 543 2175 
1 1687 1593 
1 505 1295 
1 505 598 
1 504 1295 
1 504 598 
1 503 598 
1 502 598 
1 558 1593 
1 1829 1817 
1 1835 1817 
1 1885 1817 
1 1834 1817 
1 1698 1593 
1 500 1817 
1 1836 1817 
1 498 1817 
1 496 1817 
1 1859 598 
1 1887 1817 
1 1888 1817 
1 1876 1817 
1 1858 1184 
1 1877 1184 
1 513 2175 
1 514 2175 
1 1837 1817 
1 1838 1817 
0 383 2363 
0 366 2590 
0 397 1822 
0 395 4354 
0 393 4937 
0 393 4931 
0 437 1724 
0 437 2071 
0 431 2227 
0 429 4535 
0 427 4362 
0 423 1645 
0 420 3869 
0 415 3987 
0 403 4136 
0 378 2735 
0 372 1262 
0 383 2587 
0 402 1583 
0 388 485 
0 388 3607 
0 389 2600 
0 424 596 
0 418 2917 
0 417 3015 
0 386 4810 
0 386 301 
0 551 4750 
0 398 4229 
0 390 4654 
0 388 1782 
0 589 1016 
0 420 2487 
0 561 2080 
0 555 4671 
0 466 219 
0 416 219 
0 408 3243 
0 408 4258 
0 409 2919 
0 537 4763 
0 535 2316 
0 533 1158 
0 533 4723 
0 525 2201 
0 526 4255 
0 549 1796 
0 545 4778 
1 2618 552 
1 2625 552 
1 2622 552 
0 585 829 
0 583 3883 
0 579 4380 
0 575 3716 
0 569 3737 
0 569 3810 
0 567 1366 
0 561 698 
0 559 3953 
0 528 4817 
0 535 1181 
0 519 4801 
0 554 2685 
0 552 3938 
0 588 1983 
0 568 3514 
0 564 2568 
0 564 3542 
0 569 4809 
0 567 3050 
0 1059 2448 
0 1059 2763 
0 1055 4339 
0 1045 2729 
0 1045 3925 
0 1079 4643 
0 1079 3436 
0 1071 4616 
0 1107 4781 
0 1103 2424 
0 1099 3358 
0 558 2432 
0 1048 4696 
0 1045 4853 
0 1042 1310 
0 1079 2036 
0 1079 2229 
0 1074 4429 
0 1067 3553 
0 1115 4792 
0 1095 685 
0 1084 576 
0 1283 19 
0 1064 2929 
0 1062 885 
0 1056 2918 
0 1048 4308 
0 1046 931 
0 1301 3297 
0 1072 4698 
0 1070 1368 
0 1331 4775 
0 1325 431 
0 1114 3680 
0 1096 2134 
0 1095 4233 
0 1092 3369 
0 1090 2932 
0 1270 1826 
0 1301 258 
0 1295 760 
0 1292 4842 
0 1325 2418 
0 1319 3329 
0 1315 3942 
0 1311 724 
0 1309 515 
0 1307 4797 
0 121 3972 
0 109 2376 
1 1597 2933 
1 1597 2353 
1 1570 2933 
1 1592 16 
1 1591 2933 
1 1591 2353 
1 1591 2495 
1 1591 4519 
1 1593 16 
1 1579 4519 
1 1581 2933 
1 1581 2353 
1 1581 2495 
1 1581 16 
1 1599 2353 
1 1576 2933 
1 1576 2353 
1 1576 2495 
1 1580 2353 
1 1580 16 
1 1590 2933 
1 1590 2495 
1 1583 2933 
1 1575 2933 
1 1589 2933 
1 1589 2495 
1 1596 2933 
1 1596 2353 
0 1316 3842 
0 161 95 
0 104 4137 
0 125 2566 
0 121 3094 
0 130 3898 
0 107 2366 
