ITEM: TIMESTEP
20000000
ITEM: NUMBER OF ENTRIES
821
ITEM: BOX BOUNDS ff ff ff
-0.01 0.45
-0.15 0.15
-0.08 0.1
ITEM: ENTRIES c_pwc[1] c_pwc[2] c_pwc[3] 
0 934 1312 
0 932 4721 
0 930 3302 
0 926 1032 
0 924 1032 
0 788 1032 
0 782 3302 
0 780 1312 
0 779 1312 
0 938 1733 
0 896 1254 
0 870 3156 
0 850 481 
0 850 2760 
0 850 33 
0 850 1254 
0 850 570 
0 850 1048 
0 850 412 
0 850 197 
0 850 729 
0 850 927 
0 748 1254 
0 916 2216 
0 910 1254 
0 910 2681 
0 885 2760 
0 885 33 
0 885 1254 
0 885 570 
0 885 1048 
0 885 412 
0 885 197 
0 885 729 
0 885 927 
0 802 2681 
0 796 2216 
0 884 3626 
0 884 481 
0 884 2672 
0 884 4418 
0 884 4906 
0 854 358 
0 855 3726 
0 855 1507 
0 855 1895 
0 954 833 
0 895 1270 
0 758 833 
0 894 3726 
0 894 460 
0 894 3698 
0 894 3793 
0 894 3072 
0 894 190 
0 894 2861 
0 894 1270 
0 849 1270 
0 884 121 
0 884 1552 
0 884 3438 
0 884 3666 
0 884 4394 
0 884 1627 
0 884 3124 
0 884 1027 
0 884 4653 
0 884 2325 
0 884 2887 
0 854 2187 
0 854 156 
0 854 2214 
0 854 588 
0 854 2151 
0 854 204 
0 854 2596 
0 854 4115 
0 854 3442 
0 854 733 
0 854 1421 
0 854 1953 
0 854 420 
0 854 843 
0 854 748 
0 854 1883 
0 854 678 
0 854 2891 
0 854 3344 
0 854 2782 
0 854 2330 
0 854 4416 
0 854 3347 
0 854 1043 
0 854 126 
0 854 2991 
0 854 1416 
0 854 749 
0 853 2499 
0 853 907 
0 853 3157 
0 853 2844 
0 853 3299 
0 853 3810 
0 853 11 
0 853 3295 
0 852 1098 
0 852 2712 
0 852 2562 
0 852 261 
0 852 2163 
0 852 1581 
0 852 3689 
0 852 1672 
0 852 316 
0 852 3622 
0 852 2394 
0 852 1775 
0 852 2090 
0 852 2383 
0 852 3003 
0 852 2970 
0 852 3082 
0 852 1567 
0 852 1428 
0 894 4033 
0 894 4191 
0 894 1874 
0 894 232 
0 894 1816 
0 894 3647 
0 894 1750 
0 894 1170 
0 894 4074 
0 894 3248 
0 894 1988 
0 894 1108 
0 894 407 
0 894 1793 
0 894 1882 
0 894 282 
0 894 3967 
0 894 3898 
0 852 3177 
0 852 1873 
0 855 4487 
0 855 4033 
0 855 3655 
0 855 2503 
0 855 4461 
0 855 914 
0 855 57 
0 855 4148 
0 855 2126 
0 855 1799 
0 855 1500 
0 855 249 
0 855 4600 
0 855 2057 
0 855 2250 
0 855 3310 
0 855 1060 
0 855 350 
0 854 1302 
0 854 2111 
0 854 1984 
0 854 2435 
0 854 1751 
0 854 2510 
0 854 4174 
0 938 4913 
0 920 611 
0 935 2336 
1 2697 1219 
1 2706 3536 
1 2706 43 
1 2707 43 
1 2704 3536 
1 2705 3536 
1 2722 3536 
1 2722 43 
1 2721 43 
1 2698 3536 
1 2698 43 
1 2698 3745 
1 2717 3536 
1 2717 3745 
1 64 1141 
1 100 1141 
1 66 1141 
1 102 1141 
1 102 284 
1 138 1219 
1 136 1219 
1 103 1141 
1 103 284 
1 2507 1998 
1 65 1141 
1 101 1141 
1 101 284 
1 140 1219 
1 97 284 
1 98 284 
1 96 284 
1 125 1219 
1 114 1219 
1 2703 1219 
1 2517 2640 
1 2702 1219 
1 126 1219 
1 75 2663 
1 75 84 
1 116 1219 
1 127 1219 
1 117 1219 
1 2523 1066 
1 2516 2640 
1 74 2663 
1 74 84 
1 91 1859 
1 2500 2640 
1 78 2663 
1 78 84 
1 92 1859 
1 73 2663 
1 73 84 
1 77 2663 
1 77 84 
1 83 2663 
1 86 1859 
1 2700 1219 
1 2699 1219 
1 63 1859 
1 87 1859 
1 2528 2640 
1 2512 1066 
1 2695 1859 
1 2506 776 
1 2499 2938 
1 2513 1066 
1 2678 1859 
1 2712 1859 
1 2503 776 
1 2501 2333 
0 916 4931 
0 910 879 
0 910 130 
0 909 879 
0 909 130 
0 885 3304 
0 885 110 
0 885 879 
0 885 870 
0 885 164 
0 885 940 
0 885 42 
0 885 3135 
0 885 1890 
0 885 973 
0 885 306 
0 885 410 
0 885 880 
0 885 64 
0 885 525 
0 885 4357 
0 885 450 
0 885 1291 
0 885 1792 
0 885 3754 
0 885 1125 
0 885 1319 
0 885 1171 
0 885 1383 
0 885 111 
0 885 715 
0 885 321 
0 885 299 
0 885 1182 
0 885 199 
0 885 1901 
0 885 626 
0 885 1893 
0 885 3290 
0 885 1455 
0 885 2767 
0 885 497 
0 804 879 
0 804 130 
0 850 3304 
0 850 110 
0 850 879 
0 850 870 
0 850 164 
0 850 42 
0 850 3135 
0 850 1890 
0 850 973 
0 850 306 
0 850 880 
0 850 64 
0 850 525 
0 850 4357 
0 850 450 
0 850 1291 
0 850 1792 
0 850 3754 
0 850 1125 
0 850 1319 
0 850 1171 
0 850 1383 
0 850 111 
0 850 715 
0 850 299 
0 850 1182 
0 850 1893 
0 850 2767 
0 851 321 
0 851 199 
0 851 1901 
0 851 3290 
0 851 1455 
0 851 497 
0 962 4920 
0 895 3720 
0 895 3562 
0 895 1389 
0 895 2350 
0 895 4313 
1 477 2160 
1 1856 1888 
1 1862 4884 
1 1864 1888 
1 1864 13 
1 1864 4884 
1 1863 4884 
1 1881 13 
1 1879 2160 
1 1880 1888 
1 1880 13 
1 536 4884 
1 1691 2745 
1 1861 4884 
1 534 4884 
1 1874 4884 
1 1882 13 
1 1883 13 
1 1883 4884 
1 1890 4884 
1 1889 4884 
1 479 2074 
1 560 2074 
1 484 1888 
1 1820 1888 
1 485 2074 
1 485 2160 
1 485 1888 
1 1845 4884 
1 486 2074 
1 486 2160 
1 486 1888 
1 1891 4884 
1 487 2074 
1 487 2160 
1 487 1888 
1 1847 4884 
1 488 2074 
1 488 2160 
1 1694 2745 
1 491 2074 
1 555 2074 
1 1892 4884 
1 1893 4884 
0 853 2481 
0 853 1629 
0 853 4182 
0 853 3957 
0 853 1289 
0 853 3210 
0 853 4245 
0 853 1024 
0 853 4186 
0 853 4334 
0 853 2618 
0 853 4140 
0 853 470 
0 853 1601 
0 853 1089 
0 853 3182 
0 853 2441 
0 853 4685 
0 853 3782 
0 853 3198 
0 853 838 
0 853 4307 
0 853 363 
0 853 1851 
0 853 1410 
0 853 4650 
0 853 3200 
0 853 4568 
0 853 1354 
0 853 1088 
0 853 4255 
0 853 1447 
0 853 2180 
0 853 2064 
0 853 2114 
0 853 1959 
0 853 2550 
0 884 3579 
0 884 4378 
0 884 2371 
0 884 1252 
0 884 3210 
0 884 4528 
0 884 2176 
0 884 4493 
0 884 3829 
0 884 4345 
0 884 1714 
0 884 1354 
0 884 1708 
0 884 4573 
0 885 3517 
0 885 4443 
0 885 364 
0 885 3183 
0 885 2491 
0 885 3033 
0 885 3657 
0 885 2977 
0 885 4602 
0 885 3863 
0 885 223 
0 885 3753 
0 885 4729 
0 885 4022 
0 885 4076 
0 885 4017 
0 850 2371 
0 852 3625 
0 852 1498 
0 809 146 
0 894 2992 
0 894 580 
0 894 1258 
0 894 1378 
0 894 169 
0 894 2534 
0 894 4469 
0 894 1012 
0 894 598 
0 894 2357 
0 894 224 
0 894 584 
0 894 1451 
0 894 1545 
0 894 3821 
0 894 3985 
0 894 4236 
0 894 146 
0 852 3010 
0 852 3260 
0 852 146 
0 849 146 
0 895 188 
0 895 2269 
0 895 443 
0 895 3001 
0 895 3691 
0 895 3354 
0 895 1556 
0 895 2808 
0 895 708 
0 895 1474 
0 895 567 
0 895 4039 
0 895 2261 
0 853 2579 
0 937 3366 
0 929 4277 
0 927 2722 
0 927 4930 
0 923 385 
0 934 848 
0 930 2469 
0 939 2592 
1 2286 1724 
1 2285 1724 
1 2300 1724 
1 314 1724 
1 296 1724 
1 2230 1724 
1 2248 1724 
1 2302 1724 
1 2303 1724 
0 941 4932 
0 397 3812 
0 911 108 
0 911 15 
0 886 790 
0 886 3380 
0 803 108 
0 910 108 
0 885 790 
0 850 790 
0 963 2260 
0 963 1616 
0 963 2101 
0 963 428 
0 963 116 
0 961 701 
0 961 116 
0 959 1667 
0 957 1911 
0 955 466 
0 955 30 
0 955 779 
0 955 2172 
0 955 2105 
0 955 3922 
0 955 1911 
0 893 2487 
0 759 466 
0 759 30 
0 759 779 
0 759 2172 
0 759 2105 
0 759 3922 
0 757 1911 
0 755 1667 
0 753 701 
0 751 2260 
0 751 2101 
0 751 428 
0 751 116 
0 752 116 
0 891 4526 
1 566 711 
1 505 78 
1 504 231 
1 504 78 
1 546 3828 
1 557 711 
1 545 3828 
1 503 231 
1 503 78 
1 544 3828 
1 519 3828 
1 502 231 
1 502 78 
1 558 711 
1 501 3828 
1 483 231 
1 1868 3828 
1 481 231 
1 1835 3828 
1 500 3828 
1 1834 3828 
1 1866 3828 
1 1865 3828 
1 1859 78 
1 1859 3828 
1 1887 3828 
1 1888 3828 
1 1855 78 
1 1876 3828 
1 1858 1232 
1 1877 1232 
0 889 631 
0 889 2890 
0 889 3309 
0 888 1736 
0 888 3895 
0 888 1665 
0 888 808 
0 888 2339 
0 888 4687 
0 888 2184 
0 888 3641 
0 888 1955 
0 888 1414 
0 888 4122 
0 888 4322 
0 888 3742 
0 888 3201 
0 888 2265 
0 888 4809 
0 888 4738 
0 888 1452 
0 888 4737 
0 888 1261 
0 888 4189 
0 888 4141 
0 888 635 
0 888 4644 
0 888 3187 
0 888 1683 
0 888 2666 
0 888 3306 
0 888 3100 
0 888 2374 
0 888 287 
0 888 3196 
0 853 3306 
0 853 3100 
0 853 287 
0 853 4547 
0 853 3196 
0 851 96 
0 890 4202 
0 890 726 
0 886 1471 
0 886 4646 
0 886 1745 
0 885 96 
0 885 1745 
0 891 2069 
0 891 751 
0 891 2964 
0 891 3639 
0 891 1602 
0 887 2266 
0 887 234 
0 887 4477 
0 887 435 
0 887 2709 
0 893 1064 
0 893 4297 
0 892 2044 
0 892 2217 
0 892 2264 
0 892 2103 
0 888 3670 
0 888 1608 
0 888 4010 
0 888 2492 
0 888 3953 
0 888 2406 
0 888 948 
0 888 4452 
0 888 3512 
0 888 593 
0 385 4921 
0 373 4823 
0 369 2726 
0 374 1390 
0 395 1594 
0 389 3330 
0 387 4488 
1 2612 50 
1 2602 50 
0 417 4253 
0 419 4836 
0 384 4538 
0 376 2917 
0 385 1764 
0 377 1279 
0 367 4212 
0 402 1382 
0 388 4676 
0 399 1115 
0 395 1787 
0 389 245 
0 434 4805 
0 410 1068 
0 406 4388 
0 417 1061 
0 409 2612 
0 405 2351 
0 525 4768 
0 521 4362 
0 521 4834 
0 519 2900 
0 384 3900 
0 374 4634 
0 486 222 
0 402 3884 
0 398 524 
0 396 222 
0 392 2911 
0 434 4801 
0 434 1017 
0 567 1525 
0 557 2862 
0 555 4190 
0 468 3247 
0 414 3247 
0 535 1550 
0 523 3232 
0 585 3538 
0 569 2177 
0 522 3056 
0 518 2645 
0 546 4542 
0 544 1240 
0 590 768 
0 576 16 
0 564 2796 
0 1057 367 
0 1053 2769 
0 1051 386 
0 1045 2128 
0 1077 4058 
0 1073 4296 
0 1105 3494 
0 1097 145 
1 1366 1234 
1 1358 1234 
0 1089 4149 
0 1083 247 
0 1081 2443 
0 570 1549 
0 1059 3146 
0 1050 826 
0 1049 3090 
0 1047 2181 
0 1075 4479 
0 1112 3385 
0 1107 2624 
0 1104 4857 
0 1103 2433 
0 1097 4119 
0 1095 1145 
0 1095 4668 
0 1093 3675 
0 1064 4791 
0 1064 4211 
0 1058 4451 
0 1054 1833 
0 1301 1786 
0 1080 4358 
0 1080 2450 
0 1327 897 
0 1108 3324 
0 1100 1003 
0 1321 1330 
0 1309 4750 
0 1096 1982 
0 1086 3718 
0 1283 3779 
0 1277 4317 
0 1268 2588 
0 1301 2833 
0 1298 1199 
0 1293 4180 
0 1342 4441 
0 1333 4438 
0 1331 4652 
0 1327 2614 
0 1327 2115 
0 1314 498 
0 175 918 
0 174 918 
0 159 918 
0 159 2312 
0 155 2120 
0 1306 4107 
0 123 4541 
0 1326 4449 
1 1597 3636 
1 1597 4102 
1 1016 4232 
1 1575 4102 
1 1586 373 
1 1564 373 
1 1591 3636 
1 1591 4102 
1 1004 373 
1 1005 373 
1 1573 373 
1 1006 373 
1 1565 373 
1 1009 373 
1 1008 373 
1 1036 1198 
1 1555 4232 
1 1561 4232 
1 1556 4232 
1 1000 320 
1 1029 1198 
1 1010 373 
1 1015 4232 
1 1599 3636 
1 1037 1198 
1 999 320 
1 1043 1198 
1 1576 3636 
1 1576 4102 
1 1596 3636 
1 1596 4102 
1 1038 1198 
1 1001 320 
1 1031 1198 
1 1570 4102 
1 1581 3636 
1 1581 4102 
1 1583 4102 
1 1030 1198 
1 1580 3636 
1 1589 4102 
1 1589 4232 
1 1590 4102 
1 1590 4232 
0 1322 3488 
0 105 1822 
0 103 3856 
0 98 2813 
0 241 155 
0 149 155 
0 148 155 
0 159 3118 
1 1601 1163 
1 1571 1163 
1 1582 1163 
1 1588 1163 
1 1587 1163 
1 1578 1163 
1 1577 1163 
1 1579 1163 
0 140 3437 
0 104 2139 
