ITEM: TIMESTEP
20000000
ITEM: NUMBER OF ENTRIES
1863
ITEM: BOX BOUNDS ff ff ff
-0.01 0.45
-0.15 0.15
-0.08 0.1
ITEM: ENTRIES c_pwc[1] c_pwc[2] c_pwc[3] 
0 936 3441 
0 934 4936 
0 934 4282 
0 934 7528 
0 932 7092 
0 932 3180 
0 930 5081 
0 928 7794 
0 928 2137 
0 928 3420 
0 928 4196 
0 928 3555 
0 926 3954 
0 926 1232 
0 926 6939 
0 926 598 
0 926 2387 
0 926 4824 
0 926 2581 
0 926 2106 
0 924 258 
0 924 3270 
0 922 6043 
0 922 5364 
0 922 7618 
0 922 415 
0 922 3133 
0 922 6850 
0 922 3718 
0 920 6043 
0 920 5581 
0 920 4254 
0 920 2974 
0 792 6043 
0 792 5581 
0 792 4254 
0 792 2974 
0 790 5364 
0 790 7618 
0 790 415 
0 790 3133 
0 790 6850 
0 790 3718 
0 788 258 
0 788 3270 
0 788 2106 
0 786 3954 
0 786 1232 
0 786 6939 
0 786 598 
0 786 2387 
0 786 4824 
0 786 2581 
0 784 5081 
0 784 7794 
0 784 2137 
0 784 3420 
0 782 3180 
0 780 7092 
0 778 4936 
0 778 4282 
0 778 3441 
0 787 2106 
0 785 4196 
0 777 3441 
0 843 270 
0 952 6039 
0 952 2537 
0 952 3740 
0 952 1654 
0 950 270 
0 950 2908 
0 948 814 
0 948 594 
0 946 5556 
0 946 6134 
0 942 1593 
0 770 1593 
0 766 5556 
0 766 6134 
0 764 814 
0 764 594 
0 762 2908 
0 760 2537 
0 760 3740 
0 763 270 
0 761 1654 
0 954 2537 
0 863 7364 
0 850 502 
0 850 3285 
0 850 4204 
0 850 1936 
0 850 470 
0 850 3958 
0 850 5123 
0 850 6583 
0 850 3091 
0 850 337 
0 850 585 
0 850 1306 
0 850 1666 
0 850 6426 
0 850 1650 
0 850 141 
0 850 1254 
0 850 1284 
0 850 6634 
0 850 1473 
0 850 1994 
0 850 5085 
0 850 1639 
0 850 2072 
0 850 464 
0 850 433 
0 850 554 
0 850 2166 
0 850 2967 
0 821 7364 
0 748 5085 
0 918 341 
0 918 4303 
0 918 552 
0 918 4000 
0 916 1200 
0 916 7331 
0 916 1125 
0 916 1953 
0 916 720 
0 916 2717 
0 916 5739 
0 916 2056 
0 916 5614 
0 914 1200 
0 914 1628 
0 914 1552 
0 914 2857 
0 914 4094 
0 914 2688 
0 914 2312 
0 914 146 
0 914 7015 
0 914 673 
0 914 3330 
0 914 4382 
0 914 4716 
0 912 1183 
0 912 200 
0 912 1283 
0 912 7015 
0 912 2043 
0 912 785 
0 912 4375 
0 912 6541 
0 912 618 
0 912 728 
0 912 1352 
0 912 5674 
0 910 1183 
0 910 202 
0 910 2014 
0 910 7430 
0 910 1671 
0 885 1936 
0 885 470 
0 885 337 
0 885 585 
0 885 1306 
0 885 141 
0 885 1254 
0 885 1284 
0 885 6634 
0 885 5085 
0 885 1639 
0 885 2072 
0 885 464 
0 885 433 
0 885 554 
0 885 2166 
0 804 1671 
0 802 1183 
0 802 202 
0 802 2014 
0 802 7430 
0 800 200 
0 800 1283 
0 800 7015 
0 800 2043 
0 800 785 
0 800 4375 
0 800 6541 
0 800 618 
0 800 728 
0 800 1352 
0 798 1200 
0 798 1628 
0 798 1552 
0 798 2857 
0 798 4094 
0 798 2688 
0 798 2312 
0 798 146 
0 798 673 
0 798 3330 
0 796 7331 
0 796 1125 
0 796 1953 
0 796 720 
0 796 2717 
0 796 2056 
0 794 341 
0 794 6568 
0 794 552 
0 919 6568 
0 803 1671 
0 801 5674 
0 799 4382 
0 799 4716 
0 797 5739 
0 797 5614 
0 795 4303 
0 795 4000 
0 884 502 
0 884 3285 
0 884 4204 
0 884 3958 
0 884 5123 
0 884 6583 
0 884 3091 
0 884 1666 
0 884 6426 
0 884 1650 
0 884 1473 
0 884 1994 
0 884 2967 
0 854 1505 
0 855 2470 
0 958 36 
0 956 524 
0 956 36 
0 956 2307 
0 954 4943 
0 954 1816 
0 954 524 
0 954 6876 
0 954 294 
0 954 678 
0 848 5014 
0 758 4943 
0 758 1816 
0 758 524 
0 758 6876 
0 758 294 
0 758 678 
0 756 2307 
0 754 36 
0 894 6787 
0 894 4298 
0 894 221 
0 894 3837 
0 894 4818 
0 894 4417 
0 894 2883 
0 894 5014 
0 847 1816 
0 861 5429 
0 857 2702 
0 822 5429 
0 820 2702 
0 884 1063 
0 884 539 
0 884 1226 
0 884 5074 
0 884 2850 
0 884 922 
0 884 4819 
0 884 3230 
0 884 5494 
0 884 2215 
0 884 5267 
0 884 5428 
0 884 6833 
0 884 4797 
0 884 726 
0 884 5059 
0 884 1208 
0 884 7011 
0 884 6589 
0 884 4858 
0 854 1532 
0 854 7940 
0 854 7865 
0 854 6297 
0 854 1342 
0 854 5697 
0 854 181 
0 854 7897 
0 854 4994 
0 854 5736 
0 854 6831 
0 854 1154 
0 854 6816 
0 854 539 
0 854 2011 
0 854 7276 
0 854 421 
0 854 4084 
0 854 4002 
0 854 5404 
0 854 7095 
0 854 1558 
0 854 4725 
0 854 941 
0 854 5381 
0 854 3897 
0 854 3562 
0 854 982 
0 854 6526 
0 854 4210 
0 854 4471 
0 854 5864 
0 853 3079 
0 853 3929 
0 853 6745 
0 853 5597 
0 853 5053 
0 853 1771 
0 850 2850 
0 850 4797 
0 852 4836 
0 852 3701 
0 852 6857 
0 852 6499 
0 852 3321 
0 852 1877 
0 852 5637 
0 852 3539 
0 852 7503 
0 852 699 
0 852 3507 
0 852 1512 
0 852 4905 
0 852 2357 
0 852 6269 
0 894 3964 
0 894 3634 
0 894 2956 
0 894 4451 
0 894 2288 
0 894 6601 
0 894 6381 
0 894 7114 
0 894 213 
0 894 2675 
0 894 1557 
0 894 1317 
0 894 473 
0 894 5240 
0 894 7392 
0 894 4293 
0 894 6875 
0 894 7238 
0 894 4773 
0 894 3920 
0 894 1782 
0 852 4362 
0 855 862 
0 855 6921 
0 855 3623 
0 855 2225 
0 855 1802 
0 855 3634 
0 855 4231 
0 855 6070 
0 855 6742 
0 855 7585 
0 855 3193 
0 855 5372 
0 855 759 
0 854 7688 
0 854 1174 
0 854 6859 
0 854 5469 
0 854 3453 
0 938 6078 
0 932 6095 
0 930 439 
0 928 1616 
0 926 149 
0 924 3132 
0 922 2157 
0 920 4280 
0 920 827 
0 920 3055 
0 792 4280 
0 790 3132 
0 786 149 
0 780 1573 
0 780 6095 
0 933 1573 
0 927 7196 
0 793 827 
0 793 3055 
0 791 2157 
0 789 3132 
0 785 1616 
0 783 439 
1 848 3915 
0 946 2205 
0 944 1057 
0 766 7252 
0 762 5107 
0 951 5107 
0 947 7252 
0 767 2205 
1 2691 1404 
1 2691 1235 
1 2691 4352 
1 2691 2114 
1 2691 2305 
1 2691 857 
1 2691 548 
1 2691 1065 
1 2691 266 
1 2691 2125 
1 2691 1263 
1 2691 1703 
1 2691 1821 
1 2691 2571 
1 2691 284 
1 2691 975 
1 2691 1131 
1 2691 285 
1 2681 2125 
1 2681 2571 
1 2681 284 
1 2706 103 
1 2706 854 
1 2680 4352 
1 2680 2305 
1 2680 266 
1 2709 1404 
1 2709 1235 
1 2709 4352 
1 2709 2114 
1 2709 2305 
1 2709 857 
1 2709 548 
1 2709 1065 
1 2709 266 
1 2709 2125 
1 2709 1263 
1 2709 1703 
1 2709 1821 
1 2709 2571 
1 2709 284 
1 2709 975 
1 2709 1131 
1 2709 285 
1 2720 889 
1 2692 1235 
1 2692 2114 
1 2693 1235 
1 2693 2114 
1 2708 1235 
1 2708 2114 
1 2708 889 
1 2690 3172 
1 2710 3172 
1 2711 1235 
1 2711 2114 
1 2711 4295 
1 2718 1235 
1 2718 889 
1 2719 889 
1 2705 103 
1 2722 103 
1 2722 854 
1 2721 103 
1 2721 854 
1 2698 854 
1 2698 7529 
1 109 2616 
1 108 2616 
1 99 3826 
1 129 2616 
1 130 889 
1 2685 7529 
1 2717 7529 
1 100 3826 
1 137 2616 
1 135 889 
1 66 3826 
1 66 210 
1 102 1373 
1 102 1710 
1 103 1373 
1 103 1710 
1 136 2616 
1 2510 120 
1 67 210 
1 138 2616 
1 2507 120 
1 2519 210 
1 2520 120 
1 65 3826 
1 65 210 
1 101 1373 
1 97 1373 
1 97 1710 
1 61 210 
1 2667 4295 
1 96 1710 
1 71 4295 
1 71 3172 
1 2702 2835 
1 2702 243 
1 2702 1496 
1 2703 7529 
1 2703 2835 
1 2703 243 
1 2703 1496 
1 60 210 
1 2517 6109 
1 2522 725 
1 94 6187 
1 94 7225 
1 94 6356 
1 2724 7529 
1 2723 7529 
1 75 4295 
1 75 6375 
1 75 7185 
1 93 7225 
1 93 6356 
1 116 6187 
1 127 6187 
1 95 6187 
1 95 6356 
1 72 4295 
1 72 6375 
1 72 7185 
1 117 6187 
1 74 6375 
1 74 7185 
1 2672 2263 
1 2516 6109 
1 2673 2263 
1 118 6187 
1 2671 2263 
1 91 6187 
1 2639 2263 
1 92 6187 
1 92 6356 
1 2661 2263 
1 2500 6109 
1 2654 2263 
1 2656 2263 
1 2663 2263 
1 2655 2263 
1 73 7185 
1 77 2263 
1 2701 2835 
1 2701 243 
1 2701 1496 
1 2701 1227 
1 2701 480 
1 82 2263 
1 83 2263 
1 86 6310 
1 86 4568 
1 80 2263 
1 84 1691 
1 87 6310 
1 87 4568 
1 2725 7529 
1 2725 2835 
1 2725 243 
1 2725 1496 
1 2725 1227 
1 2725 480 
1 2696 6187 
1 2695 4568 
1 81 2263 
1 81 1691 
1 85 1691 
1 85 6310 
1 2513 5497 
1 2527 482 
1 2524 990 
1 2525 990 
1 2678 4568 
1 2712 4568 
1 2504 990 
1 2504 5497 
0 918 695 
0 916 1021 
0 916 1041 
0 916 3488 
0 914 3980 
0 912 6765 
0 912 5495 
0 912 6477 
0 912 4007 
0 910 925 
0 910 1243 
0 910 1664 
0 910 1086 
0 910 1621 
0 910 829 
0 910 7511 
0 910 39 
0 909 925 
0 909 1243 
0 909 1664 
0 885 5256 
0 885 3854 
0 885 3139 
0 885 190 
0 885 701 
0 885 6615 
0 885 298 
0 885 6306 
0 885 972 
0 885 3443 
0 885 3012 
0 885 891 
0 885 3923 
0 885 1026 
0 885 7408 
0 885 2082 
0 885 4159 
0 885 1727 
0 885 3814 
0 885 536 
0 885 227 
0 885 5425 
0 885 629 
0 885 1739 
0 885 321 
0 885 3124 
0 885 327 
0 885 456 
0 885 1996 
0 885 620 
0 885 2898 
0 885 1256 
0 885 737 
0 885 1350 
0 885 792 
0 885 1308 
0 885 2843 
0 885 988 
0 885 459 
0 885 2976 
0 885 613 
0 885 1274 
0 885 7809 
0 885 195 
0 885 6465 
0 885 187 
0 885 219 
0 885 1302 
0 885 274 
0 885 73 
0 885 1166 
0 885 691 
0 885 6949 
0 885 1618 
0 885 2281 
0 885 921 
0 885 162 
0 885 1179 
0 885 2342 
0 885 2434 
0 885 1220 
0 885 1280 
0 885 4559 
0 885 2471 
0 885 272 
0 885 506 
0 885 50 
0 885 262 
0 885 2003 
0 885 4865 
0 885 2177 
0 885 4 
0 885 1712 
0 885 295 
0 885 611 
0 885 51 
0 885 454 
0 885 172 
0 885 3575 
0 885 20 
0 885 798 
0 885 7059 
0 885 697 
0 885 4791 
0 885 6790 
0 885 2346 
0 885 813 
0 885 12 
0 885 4008 
0 885 7050 
0 885 908 
0 885 1542 
0 804 925 
0 804 1243 
0 804 1664 
0 804 1086 
0 802 7006 
0 802 5495 
0 802 5004 
0 800 6765 
0 796 4571 
0 796 695 
0 796 1021 
0 917 4571 
0 915 7765 
0 913 1875 
0 911 7006 
0 911 5495 
0 911 5004 
0 911 4664 
0 911 39 
0 803 1086 
0 803 1621 
0 803 829 
0 803 7511 
0 803 4664 
0 803 39 
0 801 6477 
0 801 1875 
0 801 4007 
0 799 3980 
0 797 1041 
0 797 3488 
0 850 5256 
0 850 3854 
0 850 3139 
0 850 190 
0 850 701 
0 850 6615 
0 850 298 
0 850 6306 
0 850 972 
0 850 3443 
0 850 3012 
0 850 891 
0 850 3923 
0 850 1026 
0 850 7408 
0 850 2082 
0 850 4159 
0 850 1727 
0 850 3814 
0 850 536 
0 850 227 
0 850 5425 
0 850 629 
0 850 1739 
0 850 321 
0 850 3124 
0 850 327 
0 850 456 
0 850 1996 
0 850 620 
0 850 2898 
0 850 1256 
0 850 737 
0 850 1350 
0 850 792 
0 850 1308 
0 850 2843 
0 850 988 
0 850 459 
0 850 2976 
0 850 1274 
0 850 7809 
0 850 195 
0 850 6465 
0 850 187 
0 850 219 
0 850 1302 
0 850 274 
0 850 2281 
0 850 921 
0 850 162 
0 850 1179 
0 850 2342 
0 850 2434 
0 850 1220 
0 850 1280 
0 850 4559 
0 850 2471 
0 850 506 
0 850 4 
0 850 1712 
0 850 295 
0 850 611 
0 850 51 
0 850 454 
0 850 172 
0 850 3575 
0 850 12 
0 851 613 
0 851 73 
0 851 1166 
0 851 691 
0 851 6949 
0 851 272 
0 851 50 
0 851 262 
0 851 2003 
0 851 4865 
0 851 2177 
0 851 20 
0 851 798 
0 851 7059 
0 851 697 
0 851 4791 
0 851 6790 
0 851 2346 
0 851 813 
0 851 4008 
0 851 7050 
0 851 908 
0 851 1542 
0 964 1314 
0 964 2035 
0 962 6245 
0 962 957 
0 958 2812 
0 958 5609 
0 956 7556 
0 956 7285 
0 956 7018 
0 954 6133 
0 954 371 
0 954 836 
0 954 7 
0 895 1661 
0 895 5017 
0 895 1843 
0 895 2119 
0 895 4326 
0 895 1633 
0 895 7326 
0 895 3914 
0 895 3489 
0 895 4399 
0 895 6170 
0 895 4757 
0 758 6133 
0 756 5817 
0 756 3357 
0 756 2268 
0 756 2724 
0 754 513 
0 754 5181 
0 750 4198 
0 750 1314 
0 750 2035 
0 963 4198 
0 963 2035 
0 963 7182 
0 959 513 
0 959 5181 
0 959 5609 
0 957 5817 
0 957 3357 
0 957 2268 
0 957 2724 
0 957 3030 
0 759 371 
0 759 7 
0 757 7285 
0 757 7018 
0 757 3030 
0 755 2812 
0 755 5609 
0 751 7182 
0 751 6245 
0 751 957 
1 1895 5259 
1 1895 1083 
1 1895 2264 
1 1895 3242 
1 1894 4933 
1 1894 5889 
1 1894 4750 
1 1894 3408 
1 1850 5259 
1 1850 1035 
1 1857 5259 
1 1857 1553 
1 1857 186 
1 1857 4187 
1 1857 1083 
1 1857 2264 
1 1857 2068 
1 1857 4721 
1 1857 4933 
1 1857 3242 
1 1857 5509 
1 1857 5889 
1 1857 2250 
1 1857 2060 
1 1857 3905 
1 1857 4750 
1 1857 457 
1 1857 1540 
1 1857 306 
1 1857 343 
1 1857 584 
1 1857 4794 
1 1857 1978 
1 1857 3793 
1 1857 382 
1 1857 5916 
1 1857 1742 
1 1857 3307 
1 1857 4161 
1 1857 3596 
1 1857 4330 
1 1857 7058 
1 1857 4837 
1 1857 1344 
1 1857 5050 
1 1875 5259 
1 1875 1553 
1 1875 186 
1 1875 4187 
1 1875 1083 
1 1875 2264 
1 1875 2068 
1 1875 4721 
1 1875 4933 
1 1875 3242 
1 1875 5509 
1 1875 5889 
1 1875 2250 
1 1875 2060 
1 1875 3905 
1 1875 4750 
1 1875 457 
1 1875 1540 
1 1875 306 
1 1875 343 
1 1875 1035 
1 1875 584 
1 1875 4794 
1 1875 1978 
1 1875 3793 
1 1875 382 
1 1875 5916 
1 1875 1742 
1 1875 3307 
1 1875 4161 
1 1875 3596 
1 1875 4330 
1 1875 7058 
1 1875 4837 
1 1875 1344 
1 1875 5050 
1 1896 3408 
1 1856 1035 
1 1856 591 
1 1856 772 
1 1897 3408 
1 1862 3118 
1 1862 4766 
1 1862 7329 
1 1864 3408 
1 1864 7161 
1 1864 7783 
1 1864 3928 
1 1863 3408 
1 1881 3408 
1 1881 7161 
1 1881 7783 
1 1881 3118 
1 1881 3928 
1 1879 772 
1 1880 7161 
1 1880 7783 
1 1880 3928 
1 563 1823 
1 513 319 
1 514 1446 
1 514 591 
1 515 1446 
1 515 591 
1 516 1446 
1 516 591 
1 1691 4224 
1 1691 93 
1 536 319 
1 517 591 
1 1861 861 
1 1861 4766 
1 1861 6167 
1 1860 861 
1 477 1446 
1 1874 861 
1 1874 4766 
1 1874 7329 
1 1874 6167 
1 1874 7910 
1 1873 6167 
1 1873 7910 
1 1882 3928 
1 1882 7329 
1 1883 3928 
1 1883 4766 
1 1883 7329 
1 1889 861 
1 1889 4766 
1 1890 861 
1 1890 4766 
1 484 40 
1 560 6946 
1 1695 4224 
1 1820 40 
1 485 2731 
1 485 40 
1 1845 40 
1 486 2731 
1 486 40 
1 1846 40 
1 1891 4766 
1 1891 6167 
1 1891 7910 
1 1847 40 
1 487 2731 
1 487 904 
1 1848 40 
1 1842 861 
1 488 2731 
1 488 2620 
1 488 40 
1 1694 4224 
1 1694 1443 
1 490 2620 
1 490 6954 
1 491 2620 
1 491 6954 
1 1838 1615 
1 1839 1615 
1 492 6954 
1 493 1615 
1 493 6954 
1 555 1443 
1 1693 3355 
1 494 2776 
1 494 574 
1 494 1615 
1 495 574 
1 495 1615 
1 565 1823 
1 537 319 
1 538 319 
1 539 319 
1 1872 7910 
1 1893 861 
1 1892 861 
1 496 2776 
1 496 574 
1 496 1615 
1 497 2776 
1 497 574 
1 1696 2868 
0 853 5468 
0 853 3864 
0 853 7532 
0 853 1483 
0 853 267 
0 853 1045 
0 853 6364 
0 853 2984 
0 853 3129 
0 853 5809 
0 853 1215 
0 853 1395 
0 853 3682 
0 853 1278 
0 853 5649 
0 853 5405 
0 853 6856 
0 853 5843 
0 853 6791 
0 853 2546 
0 853 7727 
0 853 6773 
0 853 5061 
0 853 3569 
0 853 3209 
0 853 662 
0 853 5545 
0 851 4899 
0 851 4761 
0 851 544 
0 851 2713 
0 851 170 
0 851 1293 
0 851 296 
0 851 934 
0 851 29 
0 851 2051 
0 851 1038 
0 851 86 
0 884 1294 
0 884 3422 
0 884 1105 
0 884 7564 
0 884 7072 
0 884 1440 
0 884 4380 
0 884 1459 
0 884 3439 
0 884 6252 
0 884 3153 
0 884 7740 
0 884 7290 
0 884 1520 
0 884 3838 
0 884 2881 
0 884 6247 
0 884 2598 
0 884 7810 
0 884 86 
0 808 662 
0 885 840 
0 885 44 
0 885 4899 
0 885 4761 
0 885 544 
0 885 2713 
0 885 170 
0 885 1293 
0 885 296 
0 885 934 
0 885 29 
0 885 2051 
0 885 1038 
0 885 841 
0 885 6819 
0 850 1294 
0 850 3422 
0 850 1105 
0 850 840 
0 850 44 
0 852 6613 
0 852 4923 
0 809 1210 
0 894 356 
0 894 4942 
0 894 674 
0 894 1796 
0 894 1472 
0 894 6545 
0 894 6800 
0 894 7232 
0 894 7304 
0 894 5984 
0 894 6469 
0 894 7291 
0 894 2107 
0 894 1158 
0 894 1451 
0 894 315 
0 894 4594 
0 852 409 
0 852 1210 
0 895 7088 
0 895 6469 
0 895 6359 
0 895 7349 
0 895 6358 
0 895 6968 
0 895 5438 
0 895 3693 
0 895 5448 
0 895 4332 
0 895 2987 
0 895 353 
0 937 159 
0 935 6947 
0 931 4930 
0 931 5462 
0 929 7944 
0 927 2036 
0 927 7966 
0 923 2232 
0 923 3306 
0 921 3808 
0 921 2112 
0 921 1181 
0 921 825 
0 793 3808 
0 793 2112 
0 793 1181 
0 793 2549 
0 793 825 
0 787 2036 
0 777 159 
0 924 2232 
0 920 2549 
0 790 2232 
0 782 4930 
1 2258 1999 
1 2258 1282 
1 2274 1999 
1 2274 1282 
1 2287 1999 
1 2287 1282 
1 2275 1999 
1 2289 1999 
1 2284 261 
0 953 5638 
0 945 4457 
0 761 5638 
0 919 3943 
0 919 440 
0 919 2560 
0 919 4433 
0 917 6101 
0 917 2931 
0 917 1182 
0 917 4583 
0 915 853 
0 915 101 
0 915 5505 
0 915 1967 
0 915 7648 
0 915 1748 
0 915 4519 
0 913 1751 
0 913 2329 
0 913 125 
0 913 4142 
0 913 1783 
0 913 4514 
0 911 5150 
0 911 1434 
0 911 6248 
0 911 1346 
0 906 174 
0 900 3842 
0 886 1059 
0 803 2524 
0 803 5150 
0 803 4284 
0 803 1434 
0 803 1346 
0 801 1751 
0 801 1100 
0 801 4891 
0 801 2329 
0 801 125 
0 801 4142 
0 801 1212 
0 801 1783 
0 801 4514 
0 799 1681 
0 799 101 
0 799 5505 
0 799 1967 
0 799 7648 
0 799 1748 
0 799 4519 
0 797 6101 
0 797 2931 
0 797 1182 
0 797 4583 
0 795 3943 
0 795 440 
0 795 2560 
0 795 4433 
0 738 174 
0 672 1212 
0 356 1212 
0 429 6248 
0 918 250 
0 914 1681 
0 914 1212 
0 912 1100 
0 912 4891 
0 910 2524 
0 910 4284 
0 885 68 
0 885 1059 
0 804 2524 
0 798 853 
0 796 250 
0 850 68 
0 850 1059 
0 889 7543 
0 817 7543 
0 744 3842 
1 1506 5093 
1 1505 5093 
1 1529 5093 
1 1519 5093 
1 1504 5093 
0 967 498 
0 967 679 
0 966 413 
0 965 180 
0 965 4897 
0 965 744 
0 963 1249 
0 963 5237 
0 963 4997 
0 963 3721 
0 963 5501 
0 963 919 
0 963 3879 
0 963 1592 
0 963 1609 
0 963 734 
0 963 2089 
0 963 345 
0 961 4813 
0 961 5334 
0 961 752 
0 961 1202 
0 961 939 
0 961 90 
0 961 3879 
0 961 4637 
0 961 5046 
0 961 222 
0 961 2241 
0 961 1637 
0 961 1498 
0 959 1320 
0 959 490 
0 959 1513 
0 959 1091 
0 959 1192 
0 959 3746 
0 959 2851 
0 959 3447 
0 959 4674 
0 959 5318 
0 959 2234 
0 959 2306 
0 959 4857 
0 957 1819 
0 957 3365 
0 957 7303 
0 957 1785 
0 955 3773 
0 955 557 
0 955 6125 
0 955 2877 
0 955 2261 
0 955 3825 
0 955 2489 
0 955 2113 
0 955 2403 
0 955 2751 
0 955 2214 
0 955 5459 
0 955 2087 
0 955 4100 
0 955 64 
0 898 1167 
0 893 6714 
0 893 1396 
0 893 6655 
0 893 1385 
0 892 7277 
0 892 7483 
0 892 5629 
0 892 7476 
0 759 3773 
0 759 6125 
0 759 2877 
0 759 3825 
0 759 2489 
0 759 2113 
0 759 2403 
0 759 2751 
0 759 2087 
0 759 64 
0 757 1819 
0 757 3365 
0 757 7303 
0 757 1785 
0 755 1320 
0 755 490 
0 755 1513 
0 755 1091 
0 755 1192 
0 755 2851 
0 755 3447 
0 755 4674 
0 755 2234 
0 755 4857 
0 753 4813 
0 753 5334 
0 753 752 
0 753 1202 
0 753 939 
0 753 4637 
0 753 5046 
0 753 222 
0 753 2241 
0 753 1637 
0 753 1498 
0 751 1249 
0 751 5237 
0 751 4997 
0 751 3721 
0 751 5501 
0 751 3879 
0 751 1592 
0 751 1609 
0 751 734 
0 751 2089 
0 751 345 
0 747 413 
0 747 180 
0 747 4897 
0 747 679 
0 747 744 
0 746 498 
0 746 1167 
0 688 679 
0 339 679 
0 758 557 
0 758 2261 
0 758 2214 
0 758 5459 
0 754 3746 
0 754 5318 
0 752 90 
0 750 919 
1 1690 2239 
1 511 378 
1 1686 2239 
1 512 378 
1 566 2239 
1 510 378 
1 510 3892 
1 509 3892 
1 508 2904 
1 508 3892 
1 507 3892 
1 507 2081 
1 506 2081 
1 1687 3687 
1 1687 2239 
1 505 2904 
1 505 1627 
1 505 2081 
1 523 2442 
1 546 1719 
1 504 2904 
1 504 1627 
1 545 1719 
1 503 1627 
1 544 1719 
1 521 1719 
1 519 1719 
1 502 42 
1 502 1627 
1 1871 2442 
1 1870 2442 
1 1870 1510 
1 1869 2442 
1 1869 1510 
1 1868 1719 
1 1868 2442 
1 1868 1510 
1 1868 6698 
1 1868 802 
1 1829 2442 
1 1893 2442 
1 482 5156 
1 481 3222 
1 481 5156 
1 1885 2442 
1 1885 1510 
1 1698 1007 
1 1698 6271 
1 480 5156 
1 549 278 
1 499 3222 
1 499 5156 
1 1699 2441 
1 1699 278 
1 552 2441 
1 1866 1719 
1 1866 783 
1 1865 1719 
1 1865 783 
1 1859 42 
1 1867 6698 
1 1867 802 
1 1867 783 
1 1887 2442 
1 1888 2442 
1 1888 783 
1 1886 2442 
1 1886 1510 
1 1886 6698 
1 1886 802 
1 1696 2441 
1 1876 42 
1 1858 3324 
1 1858 577 
1 1858 783 
1 1877 3324 
1 1877 577 
1 1877 783 
1 1903 3672 
1 513 378 
0 889 850 
0 888 2163 
0 888 3018 
0 888 4510 
0 888 4812 
0 888 7193 
0 888 664 
0 888 7819 
0 888 1805 
0 888 6388 
0 888 7341 
0 888 1892 
0 888 6172 
0 888 1479 
0 888 1707 
0 888 6402 
0 888 437 
0 888 863 
0 888 3736 
0 888 6891 
0 888 1469 
0 853 561 
0 853 7260 
0 853 288 
0 851 331 
0 851 2947 
0 851 707 
0 851 1704 
0 851 417 
0 851 763 
0 890 6961 
0 886 417 
0 886 1604 
0 886 660 
0 886 561 
0 885 331 
0 885 2947 
0 885 707 
0 885 1704 
0 885 417 
0 885 6588 
0 885 660 
0 885 763 
0 891 3302 
0 891 2422 
0 891 731 
0 891 3695 
0 887 5849 
0 887 4023 
0 887 2275 
0 887 4712 
0 893 1596 
0 892 1319 
0 892 5793 
0 892 5917 
0 892 4932 
0 892 4535 
0 895 5151 
0 895 7288 
0 895 5912 
0 895 1103 
0 888 4400 
0 888 1406 
0 888 2899 
0 888 3097 
0 888 5228 
0 888 7652 
0 888 5436 
0 888 1029 
0 888 7191 
0 888 7500 
0 888 2472 
0 888 6558 
0 383 2076 
0 369 7332 
0 366 7742 
0 399 7420 
0 397 7838 
0 395 1921 
0 389 7429 
0 389 558 
0 413 7781 
0 403 3969 
0 403 7858 
0 419 7699 
0 381 7776 
0 486 1521 
0 398 1163 
0 388 6928 
0 483 1163 
0 401 344 
0 401 4978 
0 399 7213 
0 399 1163 
0 397 5133 
0 395 1521 
0 393 7918 
0 393 5538 
0 389 5652 
0 432 4447 
0 430 5159 
0 429 5159 
0 472 6236 
0 466 595 
0 464 2514 
0 418 2820 
0 418 2514 
0 412 6334 
0 410 6236 
0 463 2820 
0 415 595 
0 413 5419 
0 419 6690 
0 655 4205 
0 529 4205 
0 525 6224 
0 496 1991 
0 386 1991 
0 380 6868 
0 551 2651 
0 545 7033 
0 543 4785 
0 486 6390 
0 486 214 
0 484 5865 
0 482 445 
0 400 445 
0 398 5865 
0 396 6390 
0 396 214 
0 595 2726 
0 589 2726 
0 587 1613 
0 583 5370 
0 444 2497 
0 444 3206 
0 438 2497 
0 438 3206 
0 428 2074 
0 619 5344 
0 565 5344 
0 470 163 
0 468 1561 
0 468 3564 
0 466 14 
0 416 14 
0 414 1561 
0 414 3564 
0 412 163 
0 408 5911 
0 535 6663 
0 535 6409 
0 523 6593 
0 521 7909 
0 551 5832 
0 539 4704 
1 2621 4714 
1 2632 4714 
1 2634 4714 
0 575 1128 
0 573 4383 
0 571 1834 
0 627 4627 
0 615 3471 
0 569 4567 
0 567 7927 
0 559 1214 
0 557 1894 
0 557 7144 
0 626 1214 
0 570 3471 
0 558 4627 
0 658 4119 
0 536 3022 
0 532 2202 
0 528 4119 
0 519 6490 
0 552 7012 
0 552 6886 
0 552 7825 
0 546 3282 
0 542 962 
0 553 5747 
0 541 1239 
0 582 4220 
0 578 6025 
0 566 4798 
0 1047 5731 
0 1077 6431 
0 1077 3431 
0 1129 3158 
0 1109 5727 
0 1109 4860 
0 1107 3158 
0 1097 7693 
0 1087 2834 
0 1083 2448 
0 1083 5062 
0 1057 3189 
0 1076 3511 
0 1075 3511 
0 1114 1507 
0 1100 1141 
0 1099 1211 
0 1097 4312 
0 1095 449 
0 1083 2609 
0 1054 3584 
0 1236 4477 
0 995 4477 
0 1352 804 
0 1351 4477 
0 1299 4477 
0 1080 7468 
0 1074 1135 
0 1071 5842 
0 1068 6149 
0 1117 7914 
0 1116 5478 
0 1113 6989 
0 1110 5666 
0 1098 1222 
0 1088 3320 
1 1816 601 
1 1817 601 
1 1806 601 
0 1305 5751 
0 1297 4359 
0 1330 6322 
0 1327 5130 
0 1323 6002 
0 1269 5724 
1 1952 549 
1 1949 549 
1 1963 549 
1 1964 549 
1 1965 549 
1 1966 549 
1 1967 549 
0 9 2055 
0 93 2280 
0 1382 2055 
0 1274 4270 
0 1268 2055 
1 2348 2873 
1 2355 2873 
1 2369 2873 
1 2370 2873 
1 2360 2696 
1 2359 2696 
1 2358 2696 
1 2357 2696 
1 2380 2696 
1 2375 2696 
1 2374 2696 
0 242 1345 
0 149 1345 
0 1304 7803 
0 1304 4906 
0 1302 1345 
0 123 2788 
0 1334 7862 
0 1326 6227 
1 1570 492 
1 1570 1547 
1 1570 868 
1 1597 492 
1 1597 1547 
1 1597 868 
1 1586 2962 
1 1591 1547 
1 1591 658 
1 1005 2962 
1 1005 1343 
1 1588 2962 
1 1553 1624 
1 1017 1343 
1 1573 2962 
1 1577 2962 
1 1552 1624 
1 1021 1624 
1 1554 1624 
1 1026 150 
1 1044 1407 
1 1036 1407 
1 1014 1624 
1 1013 1624 
1 1034 1407 
1 1045 1407 
1 1015 1624 
1 1581 658 
1 1581 2657 
1 1599 658 
1 1043 1407 
1 1576 1547 
1 1576 658 
1 1576 2657 
1 1580 658 
1 1590 1547 
1 1590 2657 
1 1583 492 
1 1583 1547 
1 1583 868 
1 1575 492 
1 1575 1547 
1 1596 492 
1 1596 1547 
1 1596 868 
1 1596 658 
1 1589 1547 
1 1589 2657 
0 105 6410 
0 1490 1398 
0 1478 1398 
0 126 7009 
0 231 7630 
0 143 4663 
0 140 7630 
0 131 6567 
0 129 7411 
0 1465 397 
0 1465 703 
0 1465 4418 
0 1465 924 
0 1458 4418 
0 1458 924 
0 1457 397 
0 1457 703 
0 1464 1709 
0 1459 924 
0 1459 1709 
0 281 2983 
0 87 7318 
0 189 2983 
0 100 2983 
0 1464 2817 
0 1459 2817 
0 280 609 
0 61 26 
0 241 609 
0 148 609 
0 266 26 
