ITEM: TIMESTEP
20000000
ITEM: NUMBER OF ENTRIES
850
ITEM: BOX BOUNDS ff ff ff
-0.01 0.45
-0.15 0.15
-0.08 0.1
ITEM: ENTRIES c_pwc[1] c_pwc[2] c_pwc[3] 
0 936 4913 
0 928 2702 
0 784 2702 
0 944 4588 
0 926 3281 
0 926 1714 
0 924 376 
0 922 59 
0 790 59 
0 788 376 
0 786 1714 
0 952 4066 
0 914 940 
0 914 3693 
0 914 1285 
0 912 940 
0 800 940 
0 800 3693 
0 800 1285 
0 960 3698 
0 954 623 
0 850 97 
0 850 303 
0 850 1529 
0 850 613 
0 850 111 
0 850 2710 
0 850 594 
0 850 208 
0 850 81 
0 885 303 
0 885 613 
0 885 111 
0 885 2710 
0 885 594 
0 885 208 
0 885 81 
0 884 2895 
0 884 2163 
0 884 97 
0 884 1529 
0 854 368 
0 854 3857 
0 854 2812 
0 855 2451 
0 855 2254 
0 855 3877 
0 855 300 
0 855 2086 
0 895 3616 
0 895 1603 
0 894 582 
0 894 962 
0 894 4273 
0 894 2343 
0 894 4348 
0 894 3616 
0 894 3032 
0 894 1603 
0 849 1603 
0 884 14 
0 884 3559 
0 884 2591 
0 884 1761 
0 884 2499 
0 884 3370 
0 884 4001 
0 884 3854 
0 884 4054 
0 884 741 
0 884 738 
0 884 4663 
0 884 2159 
0 884 181 
0 884 4084 
0 884 985 
0 884 3122 
0 884 3023 
0 884 3088 
0 884 4162 
0 884 2659 
0 884 4896 
0 884 4262 
0 884 3493 
0 884 3574 
0 884 1361 
0 854 4566 
0 854 3286 
0 854 1965 
0 854 2360 
0 854 2295 
0 854 3843 
0 854 3703 
0 854 3559 
0 854 2405 
0 854 2997 
0 854 516 
0 854 1010 
0 854 2293 
0 854 2591 
0 854 4179 
0 854 3404 
0 854 3622 
0 854 1908 
0 854 743 
0 854 4149 
0 854 2760 
0 854 2855 
0 854 1279 
0 854 473 
0 854 515 
0 854 1761 
0 854 1276 
0 854 1812 
0 854 1465 
0 854 2980 
0 854 4465 
0 854 2312 
0 854 4575 
0 854 3603 
0 854 3171 
0 854 498 
0 854 3778 
0 854 2301 
0 854 1682 
0 854 1927 
0 854 4433 
0 853 1837 
0 853 738 
0 853 2128 
0 853 4130 
0 853 3757 
0 853 1899 
0 853 264 
0 853 1692 
0 853 2927 
0 853 4417 
0 853 1334 
0 853 358 
0 853 792 
0 853 1873 
0 850 181 
0 850 2659 
0 852 557 
0 852 498 
0 852 3778 
0 852 2301 
0 852 1695 
0 852 1682 
0 852 4433 
0 852 4108 
0 852 2154 
0 852 2547 
0 852 4231 
0 852 1095 
0 852 1482 
0 852 1775 
0 852 2121 
0 852 4372 
0 852 606 
0 852 3465 
0 852 517 
0 852 1199 
0 852 4547 
0 852 1725 
0 852 4140 
0 852 995 
0 852 3746 
0 855 896 
0 855 2129 
0 894 41 
0 894 3710 
0 894 2138 
0 894 3856 
0 894 3657 
0 894 3831 
0 894 2105 
0 894 2141 
0 894 592 
0 894 4449 
0 894 1793 
0 894 3110 
0 894 3234 
0 894 3319 
0 894 3613 
0 894 3625 
0 894 1816 
0 894 1176 
0 852 4227 
0 852 362 
0 852 2971 
0 852 3215 
0 855 2027 
0 855 1937 
0 855 3964 
0 855 394 
0 855 1960 
0 855 3710 
0 855 769 
0 855 943 
0 855 1152 
0 855 1967 
0 855 718 
0 855 3939 
0 855 2396 
0 855 1038 
0 855 2138 
0 855 3218 
0 855 194 
0 855 1145 
0 855 3498 
0 855 1675 
0 855 3374 
0 855 3194 
0 855 1324 
0 855 4170 
0 855 3856 
0 855 3756 
0 854 1341 
0 854 3327 
0 854 337 
0 854 2352 
0 854 4351 
0 854 3341 
0 854 4171 
0 854 2852 
0 854 2864 
0 854 2783 
0 933 3031 
1 2724 4605 
1 2723 4605 
1 2706 949 
1 2703 4605 
1 2717 949 
1 2717 4605 
1 2725 4605 
1 2722 949 
1 2698 949 
1 2698 4605 
1 2705 949 
1 2704 949 
0 952 4919 
1 61 3258 
1 2690 2690 
1 60 252 
1 2517 252 
1 97 3451 
1 2523 541 
1 2516 252 
1 72 2690 
1 72 3258 
1 72 252 
1 98 3451 
1 71 2690 
1 94 3451 
1 94 389 
1 92 3451 
1 92 389 
1 75 2690 
1 75 3258 
1 75 252 
1 95 3451 
1 95 389 
1 73 252 
1 74 3258 
1 74 252 
1 91 2073 
1 63 389 
1 62 389 
1 2528 252 
1 2512 541 
1 2513 541 
1 86 2073 
1 130 911 
1 2667 911 
1 2667 2690 
1 2642 2690 
1 2710 2690 
1 2712 2073 
1 2692 2690 
1 2693 2690 
1 2708 911 
1 2711 2690 
1 2707 911 
1 2719 911 
1 2726 2073 
1 2720 911 
1 2696 2073 
1 2700 2073 
1 2721 911 
1 2715 2073 
1 2727 2073 
1 2699 2073 
1 2695 2073 
0 954 578 
0 961 4924 
1 1857 4893 
1 1856 593 
1 1864 4893 
1 1864 1009 
1 1863 1009 
1 1881 1009 
1 1879 4893 
1 1879 593 
1 1880 4893 
1 517 593 
1 536 1009 
1 1874 1009 
1 528 1009 
1 1882 1009 
1 1883 1009 
1 1889 1009 
1 484 593 
1 485 1150 
1 485 593 
1 486 1150 
1 1824 1009 
1 1847 1009 
1 487 1150 
1 1849 405 
1 488 1150 
1 490 405 
1 1840 405 
1 1844 405 
1 1841 405 
1 491 405 
1 493 405 
1 494 405 
0 910 401 
0 910 901 
0 910 1756 
0 910 3952 
0 910 431 
0 909 1756 
0 909 3952 
0 909 431 
0 885 401 
0 885 2839 
0 885 2953 
0 885 1369 
0 885 901 
0 885 2133 
0 885 2060 
0 885 1756 
0 885 1929 
0 885 842 
0 885 95 
0 885 288 
0 885 926 
0 885 1033 
0 885 1372 
0 885 2294 
0 885 2168 
0 885 1778 
0 885 1244 
0 885 609 
0 885 713 
0 885 1842 
0 885 311 
0 885 2231 
0 885 455 
0 885 3952 
0 885 254 
0 885 317 
0 885 290 
0 885 2873 
0 885 82 
0 885 39 
0 885 2106 
0 804 401 
0 804 1756 
0 804 3952 
0 804 431 
0 803 431 
0 896 401 
0 896 901 
0 850 401 
0 850 2839 
0 850 2953 
0 850 1369 
0 850 901 
0 850 2133 
0 850 2060 
0 850 1756 
0 850 1929 
0 850 842 
0 850 95 
0 850 288 
0 850 926 
0 850 1033 
0 850 1372 
0 850 2294 
0 850 2168 
0 850 1778 
0 850 1244 
0 850 609 
0 850 713 
0 850 1842 
0 850 311 
0 850 2231 
0 850 3952 
0 850 254 
0 850 290 
0 850 2873 
0 850 82 
0 850 39 
0 748 901 
0 851 455 
0 851 317 
0 851 2106 
0 895 3610 
0 895 3401 
0 895 1133 
0 895 3711 
0 895 785 
0 895 612 
0 895 2305 
0 853 2588 
0 853 2296 
0 853 1342 
0 853 3108 
0 853 3948 
0 853 2029 
0 853 4014 
0 853 1215 
0 853 2492 
0 853 3591 
0 853 4646 
0 853 3789 
0 853 2788 
0 853 2077 
0 853 4165 
0 853 1558 
0 853 2202 
0 853 356 
0 853 2890 
0 853 1069 
0 853 3783 
0 853 924 
0 853 195 
0 853 3795 
0 853 2256 
0 853 3436 
0 853 630 
0 853 2486 
0 853 4180 
0 853 1012 
0 853 3053 
0 853 3960 
0 853 2008 
0 853 1153 
0 853 834 
0 853 4302 
0 853 234 
0 853 353 
0 853 147 
0 851 581 
0 884 4308 
0 884 340 
0 884 1233 
0 884 1342 
0 884 1295 
0 884 127 
0 884 3555 
0 884 2539 
0 884 2540 
0 884 4061 
0 884 2475 
0 884 4714 
0 884 2430 
0 884 1648 
0 884 950 
0 884 3972 
0 884 1557 
0 885 4272 
0 885 1815 
0 885 2614 
0 885 581 
0 885 4295 
0 852 4534 
0 852 2230 
0 852 3903 
0 852 2660 
0 852 1316 
0 809 289 
0 894 2835 
0 894 3994 
0 894 797 
0 894 2692 
0 894 1617 
0 894 1942 
0 894 2495 
0 894 2416 
0 894 3794 
0 894 3585 
0 894 4267 
0 894 2310 
0 894 1877 
0 894 731 
0 894 4109 
0 894 2553 
0 894 2432 
0 894 3552 
0 894 289 
0 852 1262 
0 852 3569 
0 852 3975 
0 852 3846 
0 852 289 
0 849 289 
0 895 2114 
0 895 58 
0 895 2039 
0 895 3448 
0 895 1877 
0 895 4422 
0 895 4230 
0 895 4336 
0 895 1132 
0 895 1243 
0 895 4409 
0 895 1412 
0 895 483 
0 895 2166 
0 853 2493 
0 853 3145 
0 853 2875 
0 853 723 
0 933 4651 
0 929 4922 
0 945 1833 
0 943 4926 
0 925 2652 
0 923 2286 
1 2285 644 
1 2286 644 
1 2300 644 
1 314 644 
1 296 644 
1 2230 644 
1 2248 644 
1 2302 644 
1 2303 644 
0 951 4635 
0 949 2745 
0 948 1187 
0 917 3237 
0 913 1727 
0 961 988 
0 961 3376 
0 961 1296 
0 961 2313 
0 961 432 
0 959 261 
0 957 3727 
0 957 16 
0 957 1771 
0 955 1681 
0 955 1771 
0 759 1681 
0 757 3727 
0 757 16 
0 757 1771 
0 755 261 
0 753 988 
0 753 3376 
0 753 1296 
0 753 2313 
0 753 432 
1 509 849 
1 508 849 
1 507 1023 
1 507 849 
1 543 849 
1 506 1023 
1 548 849 
1 542 849 
1 505 1023 
1 505 849 
1 547 849 
1 504 1023 
1 503 1023 
1 502 1023 
1 558 2211 
1 552 2211 
0 904 443 
0 886 1146 
0 910 1476 
0 909 1476 
0 885 4830 
0 804 1476 
0 850 4830 
0 963 4199 
0 963 151 
0 963 2333 
0 963 172 
0 893 4309 
0 893 3632 
0 751 4199 
0 751 151 
0 751 2333 
0 751 172 
0 895 1059 
0 752 106 
0 752 916 
0 752 172 
0 961 106 
0 961 916 
0 961 1768 
0 753 1768 
0 888 1221 
0 888 3950 
0 888 2452 
0 888 102 
0 888 1607 
0 888 1514 
0 888 1912 
0 888 3392 
0 888 23 
0 888 1704 
0 888 4608 
0 888 1954 
0 888 3449 
0 888 2810 
0 888 4169 
0 888 4795 
0 888 2750 
0 888 912 
0 888 335 
0 888 1391 
0 888 295 
0 888 3924 
0 853 1716 
0 853 4593 
0 853 656 
0 853 4279 
0 853 3991 
0 890 4756 
0 886 2381 
0 891 2048 
0 891 165 
0 891 2689 
0 887 3816 
0 887 3366 
0 887 3985 
0 887 4052 
0 809 142 
0 893 1546 
0 893 2372 
0 892 1979 
0 892 3159 
0 895 1689 
0 895 2372 
0 895 3115 
0 888 4037 
0 888 4777 
0 888 4072 
0 888 621 
0 888 1263 
0 888 1292 
0 888 838 
0 888 742 
0 853 1206 
0 853 142 
0 853 742 
0 385 4528 
0 383 3472 
0 381 2891 
0 387 3826 
1 2609 1290 
1 2612 1290 
1 2595 2140 
1 2608 1290 
1 2604 1290 
1 2598 2140 
1 2606 1290 
1 2610 1290 
0 395 3667 
0 433 1014 
0 407 4908 
0 427 3459 
0 427 2363 
0 412 2709 
0 502 282 
0 386 2512 
0 380 282 
0 377 4849 
0 391 2450 
0 387 826 
1 2117 3588 
1 2114 3588 
0 437 4793 
0 405 1052 
0 456 1120 
0 426 4680 
0 426 1120 
0 420 2869 
0 418 3049 
0 411 4104 
0 384 4675 
0 378 3276 
0 376 2341 
0 494 1103 
0 488 986 
0 488 1166 
0 394 986 
0 394 1166 
0 388 1103 
0 525 3601 
0 553 1327 
0 484 2564 
0 402 971 
0 402 4780 
0 398 2564 
0 594 268 
0 589 3306 
0 517 268 
0 436 333 
1 1724 4617 
1 1740 4617 
0 414 910 
0 412 2563 
0 545 4467 
0 543 683 
0 541 4228 
0 541 4689 
0 544 2979 
0 542 555 
0 551 1673 
0 549 4759 
0 557 1948 
0 581 3768 
0 579 136 
1 1342 1332 
0 569 4218 
0 565 2387 
0 565 1110 
0 536 4720 
0 530 3549 
0 528 2149 
0 540 3674 
0 540 4183 
0 541 4597 
0 524 1749 
0 516 1820 
0 516 4776 
0 526 2578 
0 554 2714 
0 554 3312 
0 560 1349 
0 556 103 
0 555 1740 
0 582 2004 
0 580 2776 
0 1059 3467 
0 1057 3827 
0 1071 3936 
0 1065 4807 
0 1045 1686 
0 1079 2883 
0 1077 694 
0 550 4783 
0 586 4654 
0 1087 4564 
0 1093 2930 
0 1091 2551 
0 1097 3123 
0 1061 238 
0 1055 4041 
0 1052 2605 
0 1066 4787 
0 1065 2079 
0 1079 4418 
0 1073 434 
0 1083 162 
0 1107 2085 
0 1099 1397 
0 1283 4578 
0 1060 1814 
0 1291 2628 
0 1066 1711 
0 1271 4470 
0 1080 1765 
0 1269 4410 
0 1110 3808 
0 1311 1364 
0 1085 344 
0 1083 4126 
0 1329 4 
0 1100 2457 
0 1099 2150 
0 1094 1918 
0 1287 1718 
0 1287 1506 
0 1283 879 
0 1282 1975 
0 1297 4350 
0 1297 2566 
0 1293 2488 
0 1293 2411 
0 1293 3550 
0 1271 4081 
0 1270 3902 
0 1305 3206 
0 1313 4110 
0 1311 4752 
1 1952 2593 
1 1951 2593 
1 1949 2593 
1 1966 2593 
1 1965 2593 
1 1968 2593 
1 1969 2593 
0 1331 4537 
0 1290 4434 
0 1280 4704 
0 174 336 
0 159 336 
0 1292 336 
0 92 4699 
0 1278 3510 
0 243 2324 
0 151 2324 
1 1596 622 
1 1597 622 
1 1576 622 
1 1581 622 
1 1581 1376 
1 1580 1376 
1 1593 1376 
1 1591 622 
1 1599 622 
1 1592 1376 
0 141 2099 
0 139 3243 
0 1313 629 
0 1310 2316 
0 123 1251 
0 121 4112 
0 115 3050 
0 1330 211 
0 1327 4182 
0 1320 4762 
0 1316 1633 
0 240 121 
0 149 121 
0 143 8 
0 141 1853 
0 154 3283 
0 100 1411 
