ITEM: TIMESTEP
19050000
ITEM: NUMBER OF ENTRIES
3744
ITEM: BOX BOUNDS ff ff ff
-0.01 0.45
-0.15 0.15
-0.08 0.1
ITEM: ENTRIES c_pwc[1] c_pwc[2] c_pwc[3] 
0 938 17166 
0 934 11065 
0 934 1379 
0 934 18233 
0 932 17735 
0 932 17363 
0 930 9590 
0 930 3581 
0 930 3743 
0 928 10708 
0 928 1829 
0 928 7504 
0 928 6851 
0 928 5768 
0 928 15128 
0 928 18264 
0 786 975 
0 786 1823 
0 784 10708 
0 784 1829 
0 784 7504 
0 784 6851 
0 784 5768 
0 784 15128 
0 784 18264 
0 782 9590 
0 782 3581 
0 782 3743 
0 780 17735 
0 780 17363 
0 778 11065 
0 778 1379 
0 778 18233 
0 828 1671 
0 828 331 
0 828 639 
0 828 9270 
0 926 975 
0 926 1823 
0 774 17166 
0 871 1671 
0 871 331 
0 871 639 
0 871 9270 
0 942 7830 
0 942 10780 
0 942 4319 
0 770 7830 
0 770 10780 
0 770 4319 
0 926 15372 
0 926 6600 
0 924 9227 
0 924 11621 
0 924 14830 
0 922 1507 
0 922 10525 
0 922 12480 
0 920 14769 
0 920 845 
0 920 15040 
0 920 7242 
0 920 1970 
0 792 14769 
0 792 845 
0 792 15040 
0 792 7242 
0 792 1970 
0 790 1507 
0 790 10525 
0 790 12480 
0 788 9227 
0 788 11621 
0 788 14830 
0 786 15372 
0 786 6600 
1 842 4619 
1 843 4619 
0 845 2921 
0 952 13359 
0 952 481 
0 952 18331 
0 952 9841 
0 950 13359 
0 950 7282 
0 950 16922 
0 948 2921 
0 766 2921 
0 762 13359 
0 762 16922 
0 760 481 
0 760 18331 
0 760 9841 
0 857 5435 
0 834 6567 
0 820 51 
0 918 1162 
0 918 51 
0 918 4094 
0 918 14294 
0 918 7358 
0 918 1541 
0 918 16725 
0 918 15466 
0 918 8019 
0 918 13547 
0 918 3453 
0 918 9313 
0 918 16960 
0 918 17985 
0 918 7390 
0 916 2228 
0 916 2700 
0 916 831 
0 916 6167 
0 916 11238 
0 916 1111 
0 916 7357 
0 916 5691 
0 916 11167 
0 916 14016 
0 916 14515 
0 916 10768 
0 916 1549 
0 916 14556 
0 916 11505 
0 916 4012 
0 916 737 
0 914 1173 
0 914 6567 
0 914 4368 
0 914 8016 
0 914 10476 
0 914 10348 
0 914 8162 
0 914 302 
0 914 3897 
0 914 2150 
0 914 10440 
0 914 16909 
0 914 15536 
0 914 17087 
0 912 1631 
0 912 2215 
0 912 6942 
0 912 11778 
0 912 15572 
0 912 1337 
0 912 7778 
0 912 11305 
0 800 1631 
0 800 2215 
0 800 10348 
0 800 6942 
0 800 11778 
0 800 15572 
0 800 1337 
0 800 7778 
0 800 11305 
0 798 1173 
0 798 6567 
0 798 4368 
0 798 6167 
0 798 8016 
0 798 10476 
0 798 8162 
0 798 302 
0 798 3897 
0 798 2150 
0 798 10440 
0 798 16909 
0 798 15536 
0 798 17087 
0 796 2228 
0 796 2700 
0 796 831 
0 796 11238 
0 796 1111 
0 796 7357 
0 796 5691 
0 796 16725 
0 796 11167 
0 796 14016 
0 796 14515 
0 796 10768 
0 796 3453 
0 796 1549 
0 796 14556 
0 796 11505 
0 796 4012 
0 796 737 
0 794 1162 
0 794 51 
0 794 4094 
0 794 14294 
0 794 7358 
0 794 1541 
0 794 15466 
0 794 2779 
0 794 8019 
0 794 13547 
0 794 9313 
0 794 16960 
0 794 17985 
0 794 7390 
0 919 2779 
0 866 11153 
0 866 5252 
0 960 7656 
0 958 250 
0 958 14897 
0 956 649 
0 956 4946 
0 954 11728 
0 954 4913 
0 954 8059 
0 954 7474 
0 954 17386 
0 954 12207 
0 758 4913 
0 758 8059 
0 758 7474 
0 758 17386 
0 758 12207 
0 756 250 
0 756 649 
0 756 4946 
0 754 14897 
0 752 7656 
0 847 11728 
0 760 11728 
0 861 4691 
0 822 4691 
0 828 11153 
0 828 5252 
0 870 9922 
0 850 2790 
0 850 1475 
0 850 878 
0 850 292 
0 850 498 
0 850 35 
0 850 1343 
0 850 139 
0 850 2449 
0 850 13301 
0 850 5150 
0 850 5581 
0 850 11168 
0 850 3228 
0 850 168 
0 850 17665 
0 850 7728 
0 850 8459 
0 850 6330 
0 850 7891 
0 850 7403 
0 850 2677 
0 850 1558 
0 850 6241 
0 850 5127 
0 850 12644 
0 850 1185 
0 850 9748 
0 850 4324 
0 850 2237 
0 850 1271 
0 850 5246 
0 850 469 
0 850 15455 
0 850 1033 
0 833 1193 
0 910 2105 
0 885 139 
0 885 2449 
0 885 13301 
0 885 5581 
0 885 3228 
0 885 168 
0 885 6330 
0 885 7891 
0 885 2677 
0 885 1558 
0 885 6241 
0 885 5127 
0 885 12644 
0 885 1185 
0 885 4324 
0 885 2237 
0 885 5246 
0 885 469 
0 802 2105 
0 801 11512 
0 884 2790 
0 884 1475 
0 884 15757 
0 884 878 
0 884 292 
0 884 498 
0 884 35 
0 884 1343 
0 884 5150 
0 884 11168 
0 884 10749 
0 884 17665 
0 884 7728 
0 884 8459 
0 884 7403 
0 884 9748 
0 884 1271 
0 884 15455 
0 884 1033 
0 854 8946 
0 854 13918 
0 854 113 
0 912 1193 
0 912 7863 
0 912 11802 
0 912 11512 
0 800 1193 
0 800 7863 
0 800 11802 
0 855 4783 
0 908 1927 
0 908 17134 
0 855 5093 
0 855 8597 
0 855 3766 
0 855 3297 
0 855 767 
0 855 1512 
0 855 7752 
0 855 11301 
0 855 9663 
0 855 7727 
0 855 3384 
0 855 10129 
0 855 7877 
0 855 6163 
0 855 321 
0 855 2381 
0 855 3698 
0 855 12471 
0 962 10321 
0 962 1927 
0 962 3731 
0 962 150 
0 962 4408 
0 962 2059 
0 962 546 
0 962 16202 
0 895 1739 
0 895 7318 
0 895 15532 
0 895 9202 
0 848 7593 
0 752 10321 
0 752 7540 
0 750 1927 
0 750 17134 
0 750 3731 
0 750 150 
0 750 4408 
0 750 2059 
0 750 546 
0 750 16202 
0 894 3384 
0 894 5584 
0 894 15878 
0 894 3753 
0 894 7138 
0 894 12472 
0 894 8378 
0 894 12498 
0 894 15217 
0 894 13104 
0 894 16727 
0 894 11447 
0 894 2740 
0 894 2218 
0 894 8135 
0 894 10258 
0 894 5208 
0 894 5828 
0 894 7593 
0 960 10321 
0 960 7540 
0 884 2103 
0 884 15939 
0 884 3029 
0 884 485 
0 884 11223 
0 884 1489 
0 884 8205 
0 884 2328 
0 884 7435 
0 884 12958 
0 884 14247 
0 884 15719 
0 884 12037 
0 884 15700 
0 884 16992 
0 884 3828 
0 884 10946 
0 884 5666 
0 884 14956 
0 884 15808 
0 884 4086 
0 884 18511 
0 884 13937 
0 884 493 
0 884 3351 
0 884 4186 
0 884 4702 
0 884 13042 
0 884 13124 
0 884 9700 
0 884 592 
0 884 15389 
0 884 15560 
0 884 17751 
0 884 15023 
0 884 4956 
0 884 6834 
0 884 1431 
0 884 92 
0 884 8342 
0 884 8923 
0 884 15138 
0 884 1024 
0 884 6342 
0 884 4524 
0 884 2129 
0 854 18557 
0 854 18296 
0 854 18624 
0 854 17491 
0 854 3359 
0 854 18755 
0 854 7236 
0 854 15919 
0 854 9322 
0 854 10300 
0 854 14984 
0 854 7155 
0 854 3945 
0 854 11497 
0 854 18262 
0 854 7823 
0 854 18732 
0 854 2588 
0 854 13915 
0 854 8613 
0 854 10518 
0 854 16635 
0 854 5078 
0 854 2660 
0 854 1164 
0 854 8138 
0 854 14231 
0 854 2192 
0 854 12483 
0 854 8470 
0 854 15864 
0 854 16480 
0 854 9424 
0 854 16309 
0 854 14030 
0 854 310 
0 854 9808 
0 854 385 
0 854 3029 
0 854 2545 
0 854 11350 
0 854 16628 
0 854 16418 
0 854 13207 
0 854 13959 
0 854 10917 
0 854 1826 
0 854 575 
0 854 12494 
0 854 4422 
0 854 8085 
0 854 485 
0 854 3728 
0 854 14321 
0 854 2350 
0 854 11223 
0 854 5371 
0 854 11388 
0 854 16831 
0 854 5549 
0 854 12742 
0 854 1362 
0 854 18043 
0 854 6816 
0 854 17009 
0 854 10398 
0 854 2272 
0 854 11502 
0 854 12504 
0 854 1498 
0 854 2591 
0 854 12237 
0 854 15501 
0 854 17247 
0 854 328 
0 854 13643 
0 854 13935 
0 854 8636 
0 854 13113 
0 854 14056 
0 854 6432 
0 854 16397 
0 854 14829 
0 854 7583 
0 854 6870 
0 854 1489 
0 854 13562 
0 854 1886 
0 854 13973 
0 854 13733 
0 854 836 
0 854 3644 
0 854 8696 
0 854 8205 
0 854 12285 
0 854 2681 
0 854 13859 
0 854 14855 
0 854 3142 
0 854 7747 
0 854 12349 
0 854 2585 
0 854 2365 
0 853 8737 
0 853 9453 
0 853 4358 
0 853 8480 
0 853 7818 
0 853 12911 
0 853 4633 
0 853 4164 
0 853 14981 
0 853 8515 
0 853 11861 
0 853 13599 
0 853 11255 
0 853 16404 
0 853 7335 
0 853 3591 
0 853 13146 
0 853 3982 
0 853 13127 
0 850 493 
0 850 4524 
0 852 2311 
0 852 8521 
0 852 2065 
0 852 1982 
0 852 1683 
0 852 2931 
0 852 2649 
0 852 13218 
0 852 5002 
0 852 16602 
0 852 1801 
0 852 11279 
0 855 8549 
0 855 12697 
0 855 7520 
0 855 9667 
0 855 5306 
0 894 6245 
0 894 4333 
0 894 6481 
0 894 12781 
0 894 16870 
0 894 12016 
0 894 15066 
0 894 7757 
0 894 9543 
0 894 16225 
0 894 852 
0 894 12244 
0 894 15083 
0 894 17121 
0 894 15125 
0 894 9493 
0 894 6087 
0 894 14562 
0 894 11161 
0 894 8179 
0 894 9067 
0 894 8945 
0 894 8864 
0 894 9660 
0 894 16844 
0 894 10659 
0 894 13517 
0 852 4008 
0 852 5605 
0 852 283 
0 855 12762 
0 855 6635 
0 855 5461 
0 855 9599 
0 855 5315 
0 855 15243 
0 855 4221 
0 855 1201 
0 855 11464 
0 855 15993 
0 855 7581 
0 855 13477 
0 855 715 
0 855 6245 
0 855 9588 
0 855 9253 
0 855 13743 
0 855 5310 
0 855 11689 
0 855 10632 
0 855 3639 
0 855 10464 
0 855 11284 
0 855 3012 
0 855 15330 
0 855 3546 
0 855 5687 
0 855 15978 
0 855 13848 
0 855 14906 
0 855 3121 
0 855 7952 
0 855 16415 
0 855 16747 
0 855 1350 
0 855 10580 
0 855 8542 
0 855 9068 
0 855 17031 
0 855 12623 
0 855 14110 
0 855 11123 
0 855 8006 
0 855 8165 
0 854 7699 
0 854 4729 
0 854 8233 
0 854 13950 
0 854 418 
0 934 16597 
0 932 1548 
0 930 14732 
0 930 12393 
0 930 16087 
0 930 1407 
0 928 17834 
0 784 6650 
0 782 14732 
0 780 3646 
0 933 3646 
0 929 6650 
0 929 14358 
0 785 17834 
0 783 12393 
0 783 16087 
0 783 1407 
0 781 1548 
0 779 16597 
0 927 15526 
1 2682 13739 
1 2680 13739 
1 2680 1700 
1 2680 12808 
1 2680 66 
1 2680 12721 
1 2683 13739 
1 2681 6075 
1 2681 10720 
1 2706 15498 
1 2706 18718 
1 2706 14246 
1 2706 17870 
1 2684 6586 
1 2720 13739 
1 2720 18507 
1 2720 12605 
1 2720 3118 
1 2720 16823 
1 2720 18718 
1 2691 1700 
1 2691 466 
1 2691 12808 
1 2691 7414 
1 2691 66 
1 2691 12721 
1 2691 6075 
1 2691 6640 
1 2691 10720 
1 2691 383 
1 2691 17811 
1 2691 12142 
1 2691 12632 
1 2691 3986 
1 2691 6896 
1 2691 5014 
1 2691 12540 
1 2691 8407 
1 2691 3306 
1 2691 37 
1 2691 3910 
1 2691 15789 
1 2691 3429 
1 2691 11118 
1 2691 4831 
1 2691 7621 
1 2691 11493 
1 2691 4668 
1 2691 1758 
1 2691 2037 
1 2698 6586 
1 2698 1529 
1 2698 15498 
1 2698 18718 
1 2698 14246 
1 2709 1700 
1 2709 466 
1 2709 12808 
1 2709 7414 
1 2709 66 
1 2709 12721 
1 2709 6075 
1 2709 6640 
1 2709 10720 
1 2709 383 
1 2709 17811 
1 2709 12142 
1 2709 12632 
1 2709 3986 
1 2709 6896 
1 2709 5014 
1 2709 12540 
1 2709 8407 
1 2709 3306 
1 2709 37 
1 2709 3910 
1 2709 15789 
1 2709 11118 
1 2709 4831 
1 2709 7621 
1 2709 11493 
1 2709 4668 
1 2709 1758 
1 2709 2037 
1 2717 6586 
1 2717 1529 
1 2717 15498 
1 2708 13739 
1 2708 466 
1 2708 17811 
1 2708 18507 
1 2708 12605 
1 2708 3118 
1 2708 16823 
1 2707 13739 
1 2707 3118 
1 2693 466 
1 2693 17811 
1 2693 3429 
1 2692 466 
1 2692 17811 
1 2692 3429 
1 2719 13739 
1 2719 18507 
1 2719 12605 
1 2719 16823 
1 2718 17811 
1 2718 18507 
1 2718 12605 
1 2718 16823 
1 2711 466 
1 2711 17811 
1 2711 3429 
1 2705 15498 
1 2705 14246 
1 2705 17870 
1 2704 15498 
1 2710 3429 
1 2721 18718 
1 2721 14246 
1 2721 17870 
1 2722 15498 
1 2722 18718 
1 2722 14246 
1 2722 17870 
1 2701 5745 
1 2701 12809 
1 2725 5745 
1 2725 12809 
1 2703 5745 
1 2703 12809 
1 2702 5745 
1 2702 12809 
1 2677 15789 
0 926 9170 
0 926 4285 
0 924 12542 
0 924 3540 
0 924 689 
0 924 6284 
0 922 574 
0 922 1446 
0 922 6393 
0 922 2856 
0 922 5743 
0 922 9281 
0 920 4616 
0 920 9611 
0 920 214 
0 920 10504 
0 920 12906 
0 920 12173 
0 920 5788 
0 792 7121 
0 792 4616 
0 792 9611 
0 792 3131 
0 792 847 
0 792 8245 
0 788 12542 
0 923 1373 
0 921 7121 
0 921 3131 
0 921 847 
0 921 8245 
0 793 214 
0 793 10504 
0 793 12906 
0 793 12173 
0 791 574 
0 791 1446 
0 791 2809 
0 791 6393 
0 791 2856 
0 791 5743 
0 791 9281 
0 789 3540 
0 789 689 
0 789 6284 
0 787 9170 
0 787 4285 
1 844 8546 
1 844 13565 
1 844 899 
1 844 86 
1 844 4676 
1 844 4875 
1 844 1767 
1 844 9669 
1 844 8046 
1 844 1457 
1 844 11704 
1 2712 14272 
1 2502 2174 
1 2502 9 
1 86 18 
1 86 3468 
1 2504 10418 
1 2700 17920 
1 2699 17920 
1 2696 17920 
1 2726 15312 
1 2501 2174 
1 2501 4686 
1 2501 12351 
1 2503 44 
1 2503 267 
1 2678 14272 
1 842 5407 
1 842 784 
1 842 530 
1 842 4099 
1 842 12105 
1 842 8305 
1 842 3628 
1 842 7929 
1 842 7169 
1 63 6347 
1 2695 14272 
1 2525 11937 
1 787 5407 
1 787 784 
1 787 530 
1 787 12103 
1 787 2174 
1 787 4099 
1 787 12105 
1 2677 13608 
1 2690 13608 
1 2690 6165 
1 2690 1035 
1 2676 6165 
1 84 18 
1 84 3214 
1 2657 18 
1 81 15410 
1 81 3214 
1 2507 958 
1 2507 1165 
1 2507 7948 
1 85 18 
1 85 3214 
1 85 3468 
1 2510 782 
1 2510 958 
1 83 8316 
1 83 15410 
1 2519 782 
1 2509 3350 
1 2520 958 
1 2521 958 
1 2508 11568 
1 101 1500 
1 101 11400 
1 101 3227 
1 100 1500 
1 67 7 
1 67 1016 
1 67 1035 
1 66 7 
1 66 1016 
1 66 1035 
1 102 1500 
1 102 11400 
1 102 3227 
1 2517 782 
1 61 7 
1 61 6350 
1 61 1016 
1 103 1500 
1 103 11400 
1 103 3227 
1 103 12749 
1 112 12749 
1 131 1035 
1 132 1035 
1 60 6350 
1 60 1016 
1 110 12749 
1 105 12749 
1 70 6350 
1 97 12749 
1 97 10123 
1 135 9400 
1 134 9400 
1 2516 3147 
1 2523 11568 
1 2724 15312 
1 98 8036 
1 98 10123 
1 139 12749 
1 138 12749 
1 136 9400 
1 79 18 
1 71 13902 
1 71 6165 
1 71 6350 
1 93 10123 
1 93 9809 
1 120 9400 
1 2505 11568 
1 2505 15850 
1 2500 3147 
1 72 13902 
1 72 6350 
1 121 9400 
1 2667 13902 
1 2651 13902 
1 94 8036 
1 94 10123 
1 94 9809 
1 82 15410 
1 75 13902 
1 75 9153 
1 95 8036 
1 95 9809 
1 2527 9 
1 2527 11937 
1 74 8316 
1 74 9153 
1 74 13403 
1 126 17920 
1 2647 15312 
1 2645 15312 
1 92 1910 
1 92 6347 
1 92 987 
1 116 17920 
1 127 17920 
1 2506 1296 
1 2506 267 
1 80 18 
1 80 3214 
1 117 17920 
1 2499 9 
1 2499 588 
1 2499 7603 
1 73 13403 
1 73 10145 
1 73 6464 
1 91 1910 
1 91 6347 
1 2644 15312 
1 118 17920 
1 2668 8316 
1 78 8316 
1 78 13403 
1 78 10145 
1 2512 987 
1 2512 15850 
1 2672 15312 
1 2669 8316 
1 2528 9 
1 2528 6464 
1 90 6347 
1 2673 15312 
1 77 8316 
1 77 13403 
1 77 10145 
1 2674 15312 
1 2639 8316 
1 62 6347 
1 843 8546 
1 843 899 
1 843 86 
1 843 4676 
1 843 4875 
1 843 1767 
1 843 9669 
1 843 8046 
1 843 1457 
1 843 11704 
1 794 7948 
1 795 7948 
1 795 8909 
1 841 1050 
1 841 692 
1 841 11618 
1 841 8305 
1 841 3628 
1 841 7929 
1 841 7169 
1 791 692 
1 788 12103 
1 788 2174 
1 2706 7124 
1 2706 18181 
1 2720 15434 
1 2720 18181 
1 2691 18125 
1 2709 13608 
1 2709 18125 
1 2708 15434 
1 2707 15434 
1 2707 18181 
1 2707 9400 
1 2692 1035 
1 2719 15434 
1 2718 13902 
1 2711 13902 
1 2710 6165 
1 2721 7124 
1 2721 18181 
1 2722 7124 
1 2722 18181 
0 952 9278 
0 950 308 
0 950 5703 
0 762 5703 
0 762 208 
0 760 15998 
0 760 14443 
0 953 15998 
0 953 14443 
0 951 208 
0 763 308 
1 487 12553 
1 1862 5341 
1 1862 9494 
1 1862 18815 
1 1862 7073 
1 1862 17999 
1 1850 16685 
1 1850 17561 
1 1850 14033 
1 1850 10634 
1 1850 8346 
1 1850 982 
1 1851 732 
1 1851 1291 
1 1852 1291 
1 654 6603 
1 1856 10634 
1 1856 732 
1 1856 8346 
1 1856 7595 
1 1856 982 
1 1856 781 
1 1856 5652 
1 658 6603 
1 1689 8865 
1 563 8865 
1 514 3602 
1 514 11047 
1 516 11047 
1 562 16083 
1 1692 16083 
1 1692 7773 
1 1692 8865 
1 476 1291 
1 476 11047 
1 513 3602 
1 477 1291 
1 477 11047 
1 515 3602 
1 478 1291 
1 485 14193 
1 485 12553 
1 485 1291 
1 479 12553 
1 479 1291 
1 1691 6603 
1 1691 4991 
1 560 16083 
1 486 12553 
1 559 1797 
1 1695 4991 
1 488 1257 
1 488 3065 
1 491 3065 
1 491 17125 
1 491 1796 
1 489 1257 
1 1895 6935 
1 1895 16685 
1 1895 3407 
1 1895 9608 
1 1895 14257 
1 490 1257 
1 490 3065 
1 1694 4991 
1 1694 1797 
1 517 5652 
1 494 17125 
1 494 16183 
1 494 1796 
1 493 17125 
1 555 10763 
1 660 2576 
1 660 4799 
1 660 2104 
1 660 5100 
1 660 2208 
1 660 676 
1 660 1612 
1 660 882 
1 660 1732 
1 660 13019 
1 660 3594 
1 484 14193 
1 1875 14955 
1 1875 1766 
1 1875 16530 
1 1875 6935 
1 1875 16685 
1 1875 5000 
1 1875 17176 
1 1875 12739 
1 1875 16838 
1 1875 10023 
1 1875 6412 
1 1875 3848 
1 1875 13632 
1 1875 3407 
1 1875 9608 
1 1875 1778 
1 1875 14257 
1 1875 17561 
1 1875 5489 
1 1875 1036 
1 1875 9482 
1 1875 5280 
1 1875 7537 
1 1875 15674 
1 1875 12326 
1 1875 13804 
1 1875 188 
1 1875 15009 
1 1875 15232 
1 1875 1046 
1 1875 17831 
1 1875 14033 
1 1875 2799 
1 1875 2540 
1 1875 8777 
1 1875 535 
1 1875 1753 
1 1875 945 
1 1875 12737 
1 1875 2188 
1 1875 10634 
1 1875 2880 
1 1875 3936 
1 1875 1436 
1 1875 13315 
1 1875 3476 
1 1875 3312 
1 1875 1634 
1 1875 3928 
1 1875 13435 
1 1875 732 
1 1875 3417 
1 1875 148 
1 1875 1926 
1 1875 14723 
1 1875 8346 
1 1875 1088 
1 1875 7595 
1 1875 982 
1 1875 131 
1 1875 781 
1 1693 13019 
1 1693 11874 
1 1697 13019 
1 1697 10763 
1 1857 14955 
1 1857 1766 
1 1857 16530 
1 1857 6935 
1 1857 16685 
1 1857 5000 
1 1857 17176 
1 1857 12739 
1 1857 16838 
1 1857 10023 
1 1857 6412 
1 1857 3848 
1 1857 13632 
1 1857 3407 
1 1857 9608 
1 1857 1778 
1 1857 14257 
1 1857 17561 
1 1857 5489 
1 1857 1036 
1 1857 9482 
1 1857 5280 
1 1857 7537 
1 1857 15674 
1 1857 12326 
1 1857 13804 
1 1857 188 
1 1857 15009 
1 1857 15232 
1 1857 1046 
1 1857 17831 
1 1857 14033 
1 1857 2799 
1 1857 4252 
1 1857 2540 
1 1857 8777 
1 1857 535 
1 1857 1753 
1 1857 945 
1 1857 12737 
1 1857 2188 
1 1857 2880 
1 1857 3936 
1 1857 1436 
1 1857 13315 
1 1857 3476 
1 1857 3312 
1 1857 1634 
1 1857 3928 
1 1857 13435 
1 1857 3417 
1 1857 15754 
1 1857 148 
1 1857 1926 
1 1857 14723 
1 1857 1088 
1 1857 6394 
1 1857 131 
1 1857 13295 
1 535 3602 
1 536 3602 
1 1820 14193 
1 1879 4252 
1 1879 15754 
1 1879 6394 
1 1879 13295 
1 1849 16686 
1 1894 14955 
1 1894 1766 
1 1894 16530 
1 1894 16976 
1 1894 5000 
1 1894 12739 
1 1894 10023 
1 1844 16686 
1 1843 16686 
1 1864 16871 
1 1864 16976 
1 1864 17626 
1 1864 12100 
1 1864 17563 
1 1864 4252 
1 1864 16340 
1 1864 18367 
1 1864 17173 
1 1864 15754 
1 1864 16010 
1 1864 6394 
1 1864 7073 
1 662 9058 
1 662 6044 
1 662 13019 
1 662 6392 
1 1863 16871 
1 1863 17626 
1 1863 16340 
1 1863 18367 
1 1863 17173 
1 1863 7073 
1 1880 16976 
1 1880 12100 
1 1880 17563 
1 1880 4252 
1 1880 15754 
1 1880 16010 
1 1880 6394 
1 1880 14193 
1 1861 9494 
1 1861 18815 
1 1861 4819 
1 1861 18046 
1 1882 7073 
1 1882 17999 
1 1873 4819 
1 1873 18046 
1 1874 9494 
1 1874 18815 
1 1874 4819 
1 1874 18046 
1 1883 9494 
1 1883 18815 
1 1883 7073 
1 1883 17999 
1 1889 9494 
1 1889 18815 
1 1890 9494 
1 1890 18815 
1 1881 16871 
1 1881 16976 
1 1881 17626 
1 1881 12100 
1 1881 17563 
1 1881 16340 
1 1881 18367 
1 1881 17173 
1 1881 16010 
1 1881 5341 
1 1881 7073 
1 1896 16976 
1 1897 16976 
1 1891 9494 
1 1891 18815 
1 1891 4819 
1 1891 18046 
1 497 16183 
1 496 16183 
1 537 3602 
1 538 3602 
1 1696 6392 
1 1696 2102 
1 763 9058 
1 763 6044 
1 763 6392 
1 1892 4819 
1 1893 4819 
1 659 4799 
1 659 676 
1 661 2576 
1 661 2104 
1 661 2208 
1 661 1612 
1 661 882 
0 918 9323 
0 918 8144 
0 918 5961 
0 918 1940 
0 918 9279 
0 918 345 
0 918 9344 
0 918 4624 
0 918 4805 
0 918 15714 
0 918 16835 
0 918 7325 
0 916 3467 
0 916 16627 
0 916 10959 
0 916 2689 
0 916 5614 
0 916 5205 
0 916 13624 
0 916 4597 
0 916 15131 
0 916 6402 
0 916 1899 
0 916 17033 
0 916 4997 
0 914 7709 
0 914 6638 
0 914 2643 
0 912 17217 
0 800 13240 
0 800 15376 
0 800 17217 
0 798 7709 
0 798 12210 
0 798 6638 
0 798 6929 
0 798 16981 
0 798 14594 
0 796 18144 
0 796 3467 
0 796 495 
0 796 2689 
0 796 1940 
0 796 5205 
0 796 8820 
0 796 4597 
0 796 1899 
0 794 9323 
0 794 265 
0 794 8144 
0 794 345 
0 794 5086 
0 794 13364 
0 794 2879 
0 794 6113 
0 794 8537 
0 794 6357 
0 919 265 
0 919 5086 
0 919 13364 
0 919 2879 
0 919 6113 
0 919 8314 
0 919 6357 
0 917 18144 
0 917 495 
0 917 8820 
0 915 12210 
0 915 6929 
0 915 16981 
0 915 14594 
0 913 13240 
0 913 15376 
0 799 2643 
0 797 16627 
0 797 10959 
0 797 5614 
0 797 13624 
0 797 15131 
0 797 6402 
0 797 17033 
0 797 4997 
0 795 5961 
0 795 1940 
0 795 9279 
0 795 9344 
0 795 4624 
0 795 4805 
0 795 15714 
0 795 16835 
0 795 8314 
0 795 7325 
0 920 265 
0 920 8537 
0 960 4515 
0 960 17710 
0 960 2838 
0 960 10618 
0 960 7459 
0 960 13034 
0 960 12438 
0 958 951 
0 958 6809 
0 958 7171 
0 958 15818 
0 956 353 
0 956 17464 
0 956 2534 
0 956 10050 
0 956 4804 
0 956 14880 
0 954 877 
0 954 789 
0 954 6634 
0 758 877 
0 758 5519 
0 758 13148 
0 756 2316 
0 756 353 
0 756 17464 
0 756 13171 
0 756 7940 
0 756 13286 
0 754 951 
0 754 17710 
0 961 11506 
0 961 16853 
0 959 17710 
0 959 15620 
0 959 1260 
0 957 2316 
0 957 13171 
0 957 7940 
0 957 13286 
0 957 18139 
0 955 5519 
0 955 13148 
0 759 789 
0 759 6634 
0 757 2534 
0 757 10050 
0 757 4804 
0 757 14880 
0 757 18139 
0 755 6809 
0 755 15620 
0 755 7171 
0 755 1260 
0 755 15818 
0 753 2838 
0 753 10618 
0 753 7459 
0 753 11506 
0 753 13034 
0 753 12438 
0 753 16853 
0 752 4515 
0 910 13580 
0 885 776 
0 885 818 
0 885 9129 
0 885 2894 
0 885 1819 
0 885 15198 
0 885 883 
0 885 5421 
0 885 3161 
0 885 17356 
0 885 2054 
0 885 8564 
0 885 12703 
0 885 2479 
0 885 453 
0 885 421 
0 885 3115 
0 885 1944 
0 885 6036 
0 885 6656 
0 885 4939 
0 885 4948 
0 885 6953 
0 885 4051 
0 885 626 
0 885 3521 
0 885 5525 
0 885 1221 
0 885 2305 
0 885 4809 
0 885 4230 
0 885 5749 
0 885 665 
0 885 2807 
0 885 2979 
0 885 8977 
0 885 362 
0 885 2601 
0 885 12466 
0 885 12052 
0 885 1669 
0 885 5394 
0 885 11914 
0 885 15213 
0 885 1586 
0 885 2324 
0 885 3066 
0 885 9692 
0 885 1726 
0 885 2742 
0 885 1536 
0 885 351 
0 885 1600 
0 885 933 
0 885 153 
0 885 340 
0 885 7135 
0 885 2040 
0 885 4678 
0 885 1678 
0 885 1424 
0 885 5016 
0 885 6568 
0 885 6632 
0 885 63 
0 885 2840 
0 885 8 
0 885 816 
0 885 438 
0 885 154 
0 885 1814 
0 885 1352 
0 885 2193 
0 885 432 
0 885 6720 
0 885 6507 
0 885 187 
0 885 1660 
0 885 1329 
0 885 4116 
0 885 16115 
0 885 9577 
0 885 7835 
0 885 428 
0 885 607 
0 885 4066 
0 885 6203 
0 885 1 
0 885 1081 
0 885 725 
0 885 171 
0 885 16 
0 885 2156 
0 885 12873 
0 885 1673 
0 885 2627 
0 885 192 
0 885 1124 
0 885 8897 
0 885 189 
0 885 8538 
0 885 89 
0 885 912 
0 885 200 
0 885 2332 
0 885 13 
0 885 227 
0 885 12097 
0 885 4766 
0 885 4386 
0 885 1258 
0 885 2079 
0 885 3478 
0 885 18194 
0 885 3548 
0 803 13580 
0 801 4377 
0 850 776 
0 850 818 
0 850 9129 
0 850 2894 
0 850 1819 
0 850 15198 
0 850 883 
0 850 5421 
0 850 3161 
0 850 17356 
0 850 2054 
0 850 8564 
0 850 12703 
0 850 2479 
0 850 453 
0 850 421 
0 850 3115 
0 850 1944 
0 850 6036 
0 850 6656 
0 850 4939 
0 850 4948 
0 850 6953 
0 850 4051 
0 850 626 
0 850 3521 
0 850 5525 
0 850 1221 
0 850 2305 
0 850 4809 
0 850 4230 
0 850 5749 
0 850 665 
0 850 2807 
0 850 2979 
0 850 8977 
0 850 362 
0 850 2601 
0 850 12466 
0 850 12052 
0 850 1669 
0 850 5394 
0 850 11914 
0 850 15213 
0 850 1586 
0 850 2324 
0 850 3066 
0 850 9692 
0 850 1726 
0 850 2742 
0 850 1536 
0 850 351 
0 850 1600 
0 850 933 
0 850 153 
0 850 340 
0 850 7135 
0 850 2040 
0 850 4678 
0 850 1678 
0 850 1424 
0 850 6632 
0 850 63 
0 850 2840 
0 850 8 
0 850 816 
0 850 438 
0 850 154 
0 850 1814 
0 850 1352 
0 850 432 
0 850 6720 
0 850 187 
0 850 1660 
0 850 1329 
0 850 4116 
0 850 9577 
0 850 7835 
0 850 428 
0 850 607 
0 850 4066 
0 850 1 
0 850 1081 
0 850 171 
0 850 16 
0 850 2156 
0 850 12873 
0 850 1673 
0 850 8897 
0 850 189 
0 850 200 
0 850 2332 
0 850 13 
0 850 4386 
0 851 5016 
0 851 6568 
0 851 2193 
0 851 6507 
0 851 16115 
0 851 6203 
0 851 725 
0 851 2627 
0 851 192 
0 851 1124 
0 851 8538 
0 851 89 
0 851 912 
0 851 227 
0 851 12097 
0 851 4766 
0 851 1258 
0 851 2079 
0 851 3478 
0 851 18194 
0 851 3548 
0 912 4377 
0 964 2620 
0 964 5028 
0 964 4915 
0 964 2022 
0 964 422 
0 964 6114 
0 964 8148 
0 962 4934 
0 962 1142 
0 962 2273 
0 962 10933 
0 962 6398 
0 962 2626 
0 962 4334 
0 895 14424 
0 895 10895 
0 895 12848 
0 895 18079 
0 895 473 
0 895 14492 
0 895 7980 
0 895 10929 
0 895 12998 
0 895 11721 
0 895 12126 
0 895 2746 
0 895 11636 
0 895 10148 
0 895 16060 
0 895 16475 
0 895 3778 
0 895 15724 
0 895 11332 
0 895 3528 
0 895 1020 
0 895 17779 
0 895 17005 
0 895 14416 
0 895 6114 
0 895 3059 
0 895 10614 
0 895 8148 
0 895 2559 
0 752 9230 
0 752 4365 
0 752 1779 
0 752 9932 
0 752 14297 
0 752 4166 
0 750 7217 
0 750 11582 
0 750 2462 
0 750 6498 
0 750 4915 
0 750 8588 
0 750 7658 
0 750 2022 
0 750 6841 
0 750 10702 
0 750 8465 
0 750 13833 
0 750 2520 
0 750 14357 
0 749 2066 
0 749 2620 
0 749 5028 
0 749 422 
0 749 6114 
0 749 8148 
0 963 7217 
0 963 11582 
0 963 2462 
0 963 6498 
0 963 8588 
0 963 7658 
0 963 6841 
0 963 9105 
0 963 10702 
0 963 6372 
0 963 8465 
0 963 13833 
0 963 2520 
0 963 14357 
0 751 4934 
0 751 1142 
0 751 2273 
0 751 10933 
0 751 6398 
0 751 2626 
0 751 9105 
0 751 6372 
0 751 4334 
0 908 2066 
0 961 9230 
0 961 4365 
0 961 1779 
0 961 9932 
0 961 14297 
0 961 4166 
0 853 1716 
0 853 13267 
0 853 10931 
0 853 12814 
0 853 14510 
0 853 14053 
0 853 7065 
0 853 14260 
0 853 1351 
0 853 1763 
0 853 15761 
0 853 18017 
0 853 638 
0 853 8674 
0 853 12631 
0 853 892 
0 853 4596 
0 853 17001 
0 853 9875 
0 853 14107 
0 853 3597 
0 853 12806 
0 853 12331 
0 853 17142 
0 853 17519 
0 853 12287 
0 853 5903 
0 853 8306 
0 853 868 
0 853 15028 
0 853 7768 
0 853 4723 
0 853 16056 
0 853 14718 
0 853 11926 
0 853 13103 
0 853 18226 
0 853 374 
0 853 15902 
0 853 2698 
0 853 5324 
0 853 15706 
0 853 16910 
0 853 14605 
0 853 13311 
0 853 8598 
0 853 14318 
0 853 3234 
0 853 11953 
0 853 12347 
0 853 12687 
0 853 4035 
0 853 17139 
0 853 1204 
0 853 15510 
0 853 16860 
0 853 13822 
0 853 5572 
0 853 16769 
0 853 18124 
0 851 3917 
0 851 2012 
0 851 4140 
0 851 4613 
0 851 1038 
0 851 5532 
0 851 4542 
0 851 2531 
0 851 5471 
0 851 1773 
0 851 6271 
0 851 1799 
0 851 356 
0 851 1978 
0 851 211 
0 884 561 
0 884 14239 
0 884 17079 
0 884 10119 
0 884 4653 
0 884 5366 
0 884 8768 
0 884 11259 
0 884 3917 
0 884 17073 
0 884 5193 
0 884 2012 
0 884 4335 
0 884 3127 
0 884 2420 
0 884 1085 
0 884 18294 
0 884 7376 
0 884 10022 
0 884 14491 
0 884 14107 
0 884 5229 
0 884 8337 
0 884 17601 
0 884 8192 
0 884 9212 
0 884 18338 
0 884 8751 
0 884 1238 
0 884 18440 
0 884 10920 
0 884 862 
0 884 3793 
0 884 7654 
0 884 9102 
0 884 17225 
0 884 17573 
0 884 13491 
0 884 14728 
0 884 11525 
0 884 16138 
0 884 211 
0 885 4281 
0 885 4140 
0 885 3179 
0 885 4613 
0 885 1038 
0 885 5532 
0 885 4542 
0 885 2531 
0 885 8078 
0 885 8366 
0 885 5471 
0 885 1773 
0 885 6271 
0 885 1799 
0 885 9673 
0 885 15274 
0 885 18504 
0 885 9536 
0 885 2827 
0 885 16439 
0 885 356 
0 885 5898 
0 885 1978 
0 885 4192 
0 885 14171 
0 885 18355 
0 885 17383 
0 850 561 
0 850 4281 
0 852 1135 
0 894 4750 
0 894 1853 
0 894 11514 
0 894 17398 
0 894 14881 
0 894 1584 
0 894 8395 
0 894 17238 
0 894 2850 
0 894 11122 
0 894 16097 
0 894 6835 
0 894 3024 
0 894 13968 
0 894 9284 
0 894 4287 
0 894 6897 
0 894 10897 
0 894 5715 
0 894 10056 
0 894 608 
0 852 4664 
0 852 655 
0 849 4750 
0 849 608 
0 895 1415 
0 895 3633 
0 895 2842 
0 895 1316 
0 895 14316 
0 895 17968 
0 895 4287 
0 895 1960 
0 895 11908 
0 895 12315 
0 895 14034 
0 895 10981 
0 895 12874 
0 895 4953 
0 895 10881 
0 895 14141 
0 895 18088 
0 895 3937 
0 895 2568 
0 895 10546 
0 895 13722 
0 895 12171 
0 895 17709 
0 895 12436 
0 895 15078 
0 895 427 
0 895 16498 
0 895 10957 
0 895 14782 
0 895 13304 
0 895 12780 
0 895 11862 
0 895 608 
0 931 16277 
0 503 11646 
0 377 11646 
0 927 81 
0 787 81 
0 939 8934 
0 927 528 
0 927 8714 
0 925 3757 
0 925 307 
0 925 602 
0 923 4231 
0 923 5583 
0 923 12597 
0 923 7227 
0 923 601 
0 923 198 
0 923 9466 
0 921 13145 
0 921 3472 
0 921 8048 
0 921 11287 
0 921 9271 
0 921 755 
0 921 8242 
0 793 1007 
0 793 17839 
0 793 3472 
0 793 15103 
0 793 8048 
0 793 11287 
0 793 393 
0 793 7771 
0 793 9271 
0 793 755 
0 793 8242 
0 791 4231 
0 791 12597 
0 791 2112 
0 791 7227 
0 791 601 
0 791 198 
0 791 9466 
0 789 412 
0 789 555 
0 789 3757 
0 789 307 
0 789 602 
0 787 528 
0 787 1577 
0 787 1867 
0 787 8714 
0 926 1577 
0 926 1867 
0 924 412 
0 924 555 
0 922 2112 
0 920 1007 
0 920 17839 
0 920 15103 
0 920 393 
0 920 7771 
0 792 13145 
0 790 5583 
1 789 278 
1 789 8718 
1 841 3028 
1 841 278 
1 841 8718 
1 791 278 
1 842 3028 
0 953 7737 
0 953 3983 
0 953 18147 
0 951 1292 
0 949 3310 
0 763 1292 
0 761 18147 
0 952 18918 
0 760 7737 
0 760 3983 
1 653 3554 
1 1690 3129 
1 511 423 
1 511 9006 
1 511 10303 
1 565 3129 
1 508 423 
1 508 13494 
1 508 10303 
1 566 3129 
1 512 9006 
1 510 423 
1 510 10303 
1 652 3554 
1 509 10303 
1 1686 90 
1 507 13494 
1 504 8565 
1 504 2969 
1 504 4245 
1 505 13494 
1 505 8565 
1 505 2969 
1 502 8565 
1 502 2969 
1 502 6710 
1 502 4245 
1 1687 90 
1 1687 10379 
1 1687 9676 
1 503 8565 
1 503 2969 
1 503 4245 
1 483 6710 
1 482 6710 
1 558 2582 
1 499 3450 
1 1688 9676 
1 481 3450 
1 481 6710 
1 497 334 
1 497 4754 
1 497 3450 
1 498 334 
1 498 4754 
1 648 8095 
1 648 2083 
1 648 2941 
1 496 334 
1 551 2582 
1 1698 15168 
1 1698 6043 
1 1855 7851 
1 1854 7851 
1 501 8565 
1 1696 230 
1 543 3155 
1 500 13001 
1 1876 13001 
1 1876 7851 
1 1876 2902 
1 548 3155 
1 542 3155 
1 545 8565 
1 519 8565 
1 544 8565 
1 655 14293 
1 655 6043 
1 655 6016 
1 655 1025 
1 655 2543 
1 1836 334 
1 1835 16645 
1 1829 16645 
1 763 327 
1 763 668 
1 763 14293 
1 763 9553 
1 763 6016 
1 763 1025 
1 1859 8565 
1 1859 7851 
1 1859 13980 
1 1859 2902 
1 1859 1113 
1 1859 1813 
1 1871 4205 
1 1868 7371 
1 1868 4205 
1 1868 13664 
1 1868 4054 
1 1868 4238 
1 1868 17388 
1 1869 4205 
1 1869 4054 
1 1870 4205 
1 1870 4054 
1 1858 3552 
1 1858 11962 
1 1858 7248 
1 1858 4734 
1 1865 8565 
1 1865 13980 
1 1885 16645 
1 1885 4205 
1 1893 16645 
1 1893 13664 
1 1888 13980 
1 1888 13882 
1 1887 13882 
1 1877 13980 
1 1877 2902 
1 1877 1113 
1 1877 1813 
1 1877 3552 
1 1877 11962 
1 1877 7248 
1 1877 4734 
1 1867 7371 
1 1867 13664 
1 1867 4054 
1 1867 4238 
1 1867 1444 
1 1867 17388 
1 1867 13882 
1 1867 14032 
1 1867 10890 
1 1867 6363 
1 1867 13700 
1 1867 14664 
1 1867 13533 
1 1886 7371 
1 1886 4205 
1 1886 13664 
1 1886 4054 
1 1886 4238 
1 1886 1444 
1 1886 17388 
1 1886 13882 
1 1886 14032 
1 1886 10890 
1 1886 6363 
1 1886 13700 
1 1886 14664 
1 1886 13533 
1 657 6043 
1 657 8095 
1 657 2083 
1 657 2941 
1 656 6043 
1 656 8095 
1 656 2543 
1 649 8095 
1 649 2083 
1 514 9006 
1 513 9006 
1 1838 334 
1 1837 334 
1 1830 16645 
1 1831 16645 
0 919 18888 
0 919 14743 
0 919 14952 
0 919 9076 
0 919 760 
0 919 9711 
0 919 6122 
0 919 13714 
0 919 7291 
0 919 8056 
0 919 5952 
0 919 6597 
0 919 367 
0 919 11322 
0 919 98 
0 917 4683 
0 917 16008 
0 917 15974 
0 917 13025 
0 917 16523 
0 917 14744 
0 917 18130 
0 917 18633 
0 917 13014 
0 917 774 
0 917 2255 
0 917 5334 
0 917 13076 
0 917 1306 
0 917 9994 
0 917 10744 
0 917 402 
0 915 16793 
0 915 4646 
0 915 12810 
0 915 1964 
0 915 2 
0 799 16793 
0 799 12810 
0 799 1964 
0 799 2 
0 797 3138 
0 797 17762 
0 797 15974 
0 797 14861 
0 797 16523 
0 797 14744 
0 797 18130 
0 797 15052 
0 797 13014 
0 797 774 
0 797 2255 
0 797 5334 
0 797 13076 
0 797 9994 
0 797 10744 
0 797 402 
0 795 14743 
0 795 12646 
0 795 14952 
0 795 9076 
0 795 760 
0 795 9711 
0 795 11058 
0 795 6122 
0 795 13714 
0 795 7291 