ITEM: TIMESTEP
18550000
ITEM: NUMBER OF ENTRIES
3344
ITEM: BOX BOUNDS ff ff ff
-0.01 0.45
-0.15 0.15
-0.08 0.1
ITEM: ENTRIES c_pwc[1] c_pwc[2] c_pwc[3] 
0 936 1114 
0 934 601 
0 934 3634 
0 932 601 
0 932 6176 
0 932 15275 
0 932 692 
0 932 7433 
0 932 9163 
0 930 2398 
0 930 12549 
0 930 2106 
0 930 7015 
0 930 9617 
0 930 502 
0 930 1864 
0 928 11321 
0 928 8082 
0 928 11770 
0 926 2977 
0 926 11275 
0 926 3369 
0 924 3178 
0 924 5036 
0 924 14374 
0 924 1471 
0 924 4355 
0 924 16414 
0 922 8246 
0 922 9473 
0 922 11794 
0 922 4296 
0 922 15477 
0 920 3374 
0 920 15145 
0 920 13614 
0 920 189 
0 920 662 
0 920 6096 
0 920 2672 
0 920 2064 
0 920 13129 
0 920 4650 
0 920 1908 
0 792 3374 
0 792 15145 
0 792 189 
0 792 662 
0 792 6096 
0 792 2672 
0 792 2064 
0 792 13129 
0 792 4650 
0 792 1908 
0 790 8246 
0 790 9473 
0 790 11794 
0 790 4296 
0 790 1471 
0 790 15477 
0 788 3178 
0 788 5036 
0 788 14374 
0 788 4355 
0 788 16414 
0 786 2977 
0 786 11275 
0 784 8082 
0 784 11770 
0 782 2398 
0 782 12549 
0 782 2106 
0 782 9617 
0 782 502 
0 782 1864 
0 780 601 
0 780 6176 
0 780 15275 
0 780 692 
0 778 3634 
0 776 1114 
0 787 3369 
0 785 11321 
0 783 7015 
0 781 7433 
0 781 9163 
0 952 8351 
0 952 1944 
0 952 7018 
0 952 2569 
0 952 3715 
0 952 11626 
0 950 1944 
0 950 3068 
0 950 1895 
0 950 1056 
0 950 469 
0 950 1574 
0 950 689 
0 950 143 
0 948 11361 
0 948 6298 
0 948 1791 
0 946 6970 
0 946 11052 
0 944 2656 
0 944 11459 
0 944 17051 
0 944 7434 
0 942 8949 
0 942 13599 
0 942 14112 
0 942 6706 
0 940 1418 
0 940 4178 
0 774 16182 
0 774 5421 
0 772 1418 
0 772 4178 
0 770 11459 
0 770 8949 
0 770 13599 
0 770 14112 
0 770 6706 
0 768 2656 
0 768 17051 
0 768 7434 
0 766 6970 
0 766 11052 
0 764 11361 
0 764 6298 
0 764 1791 
0 762 1944 
0 762 3068 
0 762 1895 
0 762 1056 
0 762 689 
0 762 143 
0 760 8351 
0 760 7018 
0 760 2569 
0 760 3715 
0 760 11626 
0 763 469 
0 763 1574 
0 954 8351 
0 938 16182 
0 938 5421 
0 850 467 
0 850 5837 
0 850 497 
0 850 2484 
0 850 5697 
0 850 546 
0 850 2221 
0 850 3116 
0 850 2178 
0 850 99 
0 850 15710 
0 850 279 
0 850 1401 
0 850 3363 
0 850 8205 
0 850 10826 
0 850 6551 
0 850 1280 
0 850 8711 
0 850 4364 
0 850 1737 
0 850 16427 
0 850 2925 
0 850 16309 
0 850 9319 
0 850 9168 
0 850 1013 
0 850 1479 
0 850 6319 
0 850 10049 
0 850 5586 
0 850 9893 
0 850 6726 
0 850 16883 
0 850 4613 
0 850 16023 
0 835 2071 
0 833 4520 
0 918 1623 
0 918 14362 
0 918 867 
0 918 12866 
0 918 13415 
0 918 14026 
0 918 4375 
0 918 2383 
0 918 16535 
0 918 5387 
0 918 17663 
0 918 257 
0 918 11493 
0 918 4274 
0 918 12201 
0 918 15619 
0 918 16635 
0 916 92 
0 916 7693 
0 916 6083 
0 916 2071 
0 916 1211 
0 916 11556 
0 916 1500 
0 916 9322 
0 916 8216 
0 916 2444 
0 916 16366 
0 916 3736 
0 916 4834 
0 916 4260 
0 916 15343 
0 916 3377 
0 916 16332 
0 916 17553 
0 916 7415 
0 916 14867 
0 916 16790 
0 916 6245 
0 916 7277 
0 916 11407 
0 916 16094 
0 916 6982 
0 916 17148 
0 916 9013 
0 914 1091 
0 914 606 
0 914 2753 
0 914 2367 
0 914 486 
0 914 2070 
0 914 3610 
0 914 8033 
0 914 1684 
0 914 5377 
0 914 1235 
0 914 2939 
0 914 2897 
0 914 2399 
0 914 7416 
0 914 12048 
0 914 4111 
0 914 11211 
0 914 5290 
0 914 5934 
0 914 14264 
0 914 15734 
0 914 864 
0 914 9519 
0 914 979 
0 914 15532 
0 914 11003 
0 914 7184 
0 914 8956 
0 912 4520 
0 912 4018 
0 912 2020 
0 912 5552 
0 912 3662 
0 912 10281 
0 912 11289 
0 912 1215 
0 912 4503 
0 912 12657 
0 912 4237 
0 912 11352 
0 912 10790 
0 912 3321 
0 912 4403 
0 912 11045 
0 912 311 
0 912 8314 
0 912 11242 
0 912 16409 
0 912 4895 
0 910 4520 
0 910 6843 
0 910 4474 
0 910 7591 
0 910 10192 
0 910 6339 
0 910 12028 
0 910 10676 
0 910 2213 
0 885 2178 
0 885 99 
0 885 279 
0 885 1401 
0 885 3363 
0 885 8205 
0 885 10826 
0 885 6551 
0 885 1280 
0 885 1737 
0 885 16427 
0 885 2925 
0 885 16309 
0 885 9319 
0 885 9168 
0 885 1013 
0 885 10049 
0 885 15714 
0 885 9893 
0 885 6726 
0 885 16883 
0 885 4613 
0 802 4520 
0 802 6843 
0 802 4474 
0 802 7591 
0 802 10192 
0 802 6339 
0 802 12028 
0 802 10676 
0 800 4018 
0 800 2020 
0 800 5552 
0 800 3662 
0 800 10281 
0 800 11289 
0 800 1215 
0 800 4503 
0 800 4111 
0 800 12657 
0 800 4237 
0 800 11352 
0 800 3321 
0 800 4403 
0 800 11045 
0 800 8314 
0 800 11242 
0 800 16409 
0 800 4895 
0 798 1211 
0 798 1091 
0 798 606 
0 798 2753 
0 798 2367 
0 798 486 
0 798 2070 
0 798 3610 
0 798 1684 
0 798 5377 
0 798 1235 
0 798 2939 
0 798 2897 
0 798 2399 
0 798 7416 
0 798 12048 
0 798 11211 
0 798 5290 
0 798 5934 
0 798 14264 
0 798 15734 
0 798 864 
0 798 9519 
0 798 979 
0 798 15532 
0 798 11003 
0 798 7184 
0 796 92 
0 796 7693 
0 796 6083 
0 796 2071 
0 796 11556 
0 796 1500 
0 796 9322 
0 796 2444 
0 796 16366 
0 796 3736 
0 796 4260 
0 796 15343 
0 796 3377 
0 796 16332 
0 796 7415 
0 796 14867 
0 796 16790 
0 796 7277 
0 796 11407 
0 796 16094 
0 796 6982 
0 796 9013 
0 794 1623 
0 794 14362 
0 794 867 
0 794 12866 
0 794 13415 
0 794 14026 
0 794 4375 
0 794 2383 
0 794 16535 
0 794 5387 
0 794 257 
0 794 11493 
0 794 4274 
0 794 12201 
0 794 15619 
0 794 7039 
0 919 7039 
0 803 2213 
0 801 10790 
0 801 311 
0 799 8033 
0 799 8956 
0 797 1211 
0 797 8216 
0 797 4834 
0 797 17553 
0 797 6245 
0 797 17148 
0 795 17663 
0 795 16635 
0 884 15454 
0 884 17902 
0 884 467 
0 884 5837 
0 884 497 
0 884 2484 
0 884 5697 
0 884 546 
0 884 2221 
0 884 3116 
0 884 15710 
0 884 8711 
0 884 4364 
0 884 1479 
0 884 6319 
0 884 5586 
0 884 16023 
0 854 5525 
0 908 1477 
0 908 2427 
0 866 116 
0 855 12922 
0 855 3151 
0 855 8303 
0 855 5599 
0 855 5280 
0 855 11403 
0 855 13351 
0 855 6517 
0 855 6553 
0 855 2381 
0 855 973 
0 855 5325 
0 855 14595 
0 855 2755 
0 855 1354 
0 855 12769 
0 855 2609 
0 855 8338 
0 855 12417 
0 855 5409 
0 855 12744 
0 825 3560 
0 736 1477 
0 736 2427 
0 962 1090 
0 962 6518 
0 962 7228 
0 962 18394 
0 960 3560 
0 960 9136 
0 960 7072 
0 960 874 
0 958 654 
0 956 3519 
0 956 1184 
0 956 6751 
0 954 10716 
0 954 8853 
0 954 5536 
0 954 12287 
0 954 17960 
0 895 6958 
0 895 914 
0 895 14773 
0 848 2235 
0 758 10716 
0 758 8853 
0 758 5536 
0 758 12287 
0 758 17960 
0 756 3519 
0 756 1184 
0 754 3560 
0 754 654 
0 752 9136 
0 752 7072 
0 752 874 
0 750 1090 
0 750 6518 
0 750 7228 
0 894 1477 
0 894 4691 
0 894 10673 
0 894 9474 
0 894 4956 
0 894 3401 
0 894 5916 
0 894 11540 
0 894 6242 
0 894 6958 
0 894 12067 
0 894 6860 
0 894 9585 
0 894 12890 
0 894 4279 
0 894 14433 
0 894 12814 
0 894 7233 
0 894 9313 
0 894 11179 
0 894 2235 
0 894 15663 
0 861 13109 
0 861 33 
0 861 5408 
0 861 838 
0 861 3526 
0 822 13109 
0 822 33 
0 822 5408 
0 822 838 
0 822 3526 
0 822 1477 
0 828 116 
1 842 2675 
1 787 2675 
0 884 13939 
0 884 7425 
0 884 8931 
0 884 4343 
0 884 4809 
0 884 13088 
0 884 9037 
0 884 6279 
0 884 3504 
0 884 4998 
0 884 6146 
0 884 2780 
0 884 10074 
0 884 14179 
0 884 14216 
0 884 2655 
0 884 13765 
0 884 11393 
0 884 5592 
0 884 7426 
0 884 15194 
0 884 3706 
0 884 7357 
0 884 610 
0 884 1937 
0 884 1739 
0 884 11135 
0 884 14387 
0 884 5778 
0 884 8126 
0 884 15844 
0 884 8659 
0 884 16568 
0 884 16091 
0 884 5243 
0 884 8655 
0 884 2084 
0 884 8346 
0 884 9955 
0 884 9033 
0 884 5899 
0 884 5524 
0 854 516 
0 854 14738 
0 854 18072 
0 854 9091 
0 854 6819 
0 854 13912 
0 854 14671 
0 854 11180 
0 854 11004 
0 854 13507 
0 854 4762 
0 854 3316 
0 854 10509 
0 854 9571 
0 854 3154 
0 854 769 
0 854 2345 
0 854 11577 
0 854 10118 
0 854 4602 
0 854 3995 
0 854 11026 
0 854 3615 
0 854 9896 
0 854 10929 
0 854 9118 
0 854 3031 
0 854 8793 
0 854 14745 
0 854 10721 
0 854 6548 
0 854 7937 
0 854 1900 
0 854 8931 
0 854 15815 
0 854 11866 
0 854 4509 
0 854 3643 
0 854 6543 
0 854 5468 
0 854 8477 
0 854 17324 
0 854 16106 
0 854 3737 
0 854 9188 
0 854 11075 
0 854 2791 
0 854 5624 
0 854 14451 
0 854 11561 
0 854 10562 
0 854 3050 
0 854 11503 
0 854 10000 
0 854 4772 
0 854 7380 
0 854 12617 
0 854 4 
0 854 13613 
0 854 6601 
0 854 3619 
0 854 2283 
0 854 5990 
0 854 13685 
0 854 5768 
0 854 12829 
0 854 11808 
0 854 3256 
0 854 2258 
0 854 12096 
0 854 12776 
0 854 3993 
0 854 3822 
0 854 15847 
0 854 4227 
0 853 10421 
0 853 6146 
0 853 8694 
0 853 11400 
0 853 3593 
0 853 6784 
0 853 940 
0 853 11335 
0 853 8730 
0 853 605 
0 853 14242 
0 853 13175 
0 853 9098 
0 853 6659 
0 853 7926 
0 853 1694 
0 853 7220 
0 853 69 
0 853 12732 
0 850 2655 
0 850 7357 
0 850 610 
0 850 1937 
0 850 8126 
0 852 616 
0 852 7145 
0 852 5915 
0 852 11419 
0 852 10083 
0 852 9821 
0 852 2615 
0 852 15823 
0 852 6259 
0 852 3791 
0 855 12590 
0 855 6211 
0 894 15121 
0 894 9816 
0 894 31 
0 894 15138 
0 894 13920 
0 894 6506 
0 894 6414 
0 894 8999 
0 894 8311 
0 894 14576 
0 894 7889 
0 894 5002 
0 894 12075 
0 894 15393 
0 894 7429 
0 894 13036 
0 894 9492 
0 894 11215 
0 894 6590 
0 894 13401 
0 894 11786 
0 894 5630 
0 894 10480 
0 894 2181 
0 894 2056 
0 894 1992 
0 894 13337 
0 894 6000 
0 894 16099 
0 894 17424 
0 894 3663 
0 894 4486 
0 894 15616 
0 894 4692 
0 852 1474 
0 852 2574 
0 852 1055 
0 855 14074 
0 855 13432 
0 855 11104 
0 855 13880 
0 855 3894 
0 855 14766 
0 855 11477 
0 855 4957 
0 855 9236 
0 855 1555 
0 855 3652 
0 855 16936 
0 855 16279 
0 855 12506 
0 855 12936 
0 855 7738 
0 855 9800 
0 855 3004 
0 855 6735 
0 855 8208 
0 855 4925 
0 855 14015 
0 855 411 
0 855 7387 
0 855 14887 
0 855 9512 
0 855 5796 
0 855 6572 
0 855 7892 
0 855 9443 
0 855 9816 
0 855 6850 
0 855 5343 
0 855 8691 
0 855 2312 
0 855 31 
0 855 733 
0 855 14557 
0 855 12593 
0 855 7243 
0 855 17165 
0 855 1711 
0 855 4707 
0 855 3631 
0 854 4938 
0 934 15855 
0 934 12123 
0 930 9101 
0 926 9544 
0 922 7447 
0 922 7492 
0 922 15263 
0 920 10894 
0 920 881 
0 920 1926 
0 920 1533 
0 920 348 
0 920 16985 
0 920 13573 
0 920 4569 
0 792 10894 
0 792 1926 
0 792 532 
0 790 7447 
0 790 7020 
0 790 4153 
0 788 13024 
0 788 2699 
0 786 2540 
0 782 16135 
0 778 15855 
0 931 16135 
0 927 2540 
0 925 13024 
0 925 2699 
0 923 7020 
0 923 4153 
0 923 4928 
0 921 532 
0 793 881 
0 793 1533 
0 793 348 
0 793 16985 
0 793 13573 
0 793 4569 
0 791 7492 
0 791 4928 
0 791 15263 
0 787 9544 
0 783 9101 
0 779 12123 
0 952 6187 
0 952 1927 
0 950 11935 
0 948 1482 
0 948 1234 
0 946 16565 
0 774 8438 
0 772 2745 
0 768 3197 
0 766 16817 
0 764 1234 
0 762 11935 
0 760 6187 
0 760 15948 
0 760 1927 
0 953 15948 
0 947 16817 
0 945 16565 
0 945 3197 
0 941 2745 
0 765 1482 
0 938 8438 
0 918 1276 
0 918 7155 
0 918 10215 
0 918 296 
0 918 6908 
0 918 7077 
0 918 2118 
0 918 14592 
0 918 3660 
0 918 14449 
0 916 5100 
0 916 265 
0 916 15562 
0 916 447 
0 916 5901 
0 916 2826 
0 916 415 
0 916 387 
0 916 3269 
0 916 6564 
0 916 14896 
0 916 18383 
0 914 3415 
0 914 2530 
0 914 613 
0 914 876 
0 914 1962 
0 914 2481 
0 914 10110 
0 912 10867 
0 912 15160 
0 912 9207 
0 912 7299 
0 910 1773 
0 910 14610 
0 885 4647 
0 885 5132 
0 885 5260 
0 885 1484 
0 885 893 
0 885 5025 
0 885 8045 
0 885 13400 
0 885 14530 
0 885 10955 
0 885 9421 
0 885 6209 
0 885 445 
0 885 2428 
0 885 16022 
0 885 5981 
0 885 11267 
0 885 5807 
0 885 5492 
0 885 3114 
0 885 4708 
0 885 7764 
0 885 10900 
0 885 16120 
0 885 1603 
0 885 3030 
0 885 1608 
0 885 218 
0 885 1259 
0 885 9170 
0 885 5892 
0 885 1475 
0 885 4461 
0 885 3655 
0 885 9119 
0 885 1064 
0 885 7432 
0 885 9246 
0 885 2128 
0 885 6354 
0 885 2716 
0 885 691 
0 885 35 
0 885 647 
0 885 1218 
0 885 1406 
0 885 1701 
0 885 4803 
0 885 9349 
0 885 5548 
0 885 1780 
0 885 3135 
0 885 2819 
0 885 484 
0 885 335 
0 885 4494 
0 885 6578 
0 885 9882 
0 885 11835 
0 885 8837 
0 885 3831 
0 885 1839 
0 885 4211 
0 885 7545 
0 885 5261 
0 885 5667 
0 885 7044 
0 885 10993 
0 885 2293 
0 885 11302 
0 885 3932 
0 885 911 
0 885 3782 
0 885 1504 
0 885 9871 
0 885 1017 
0 885 5554 
0 885 1656 
0 885 3250 
0 885 164 
0 885 1118 
0 885 11123 
0 885 3903 
0 885 236 
0 885 159 
0 885 398 
0 885 172 
0 885 2693 
0 885 4102 
0 885 5442 
0 885 1551 
0 885 8419 
0 885 211 
0 885 9432 
0 885 11700 
0 885 5276 
0 885 5398 
0 885 17801 
0 885 13170 
0 885 4000 
0 885 1359 
0 885 120 
0 885 2032 
0 885 2120 
0 885 1675 
0 885 805 
0 885 15 
0 885 419 
0 885 114 
0 885 663 
0 885 4758 
0 885 1589 
0 885 579 
0 885 10713 
0 885 207 
0 885 25 
0 885 515 
0 885 5817 
0 885 7554 
0 885 1110 
0 885 741 
0 885 294 
0 885 683 
0 885 148 
0 885 3084 
0 885 1179 
0 885 503 
0 885 7593 
0 885 11334 
0 885 1420 
0 885 6399 
0 885 10483 
0 885 3541 
0 802 1773 
0 802 18136 
0 802 9079 
0 800 10867 
0 800 15160 
0 800 9207 
0 800 676 
0 800 7299 
0 798 12250 
0 798 3415 
0 798 3674 
0 798 5847 
0 798 876 
0 798 1962 
0 798 1335 
0 798 11624 
0 798 10110 
0 796 5100 
0 796 265 
0 796 6288 
0 796 447 
0 796 5901 
0 796 2314 
0 796 7195 
0 794 1276 
0 794 1987 
0 794 296 
0 794 10544 
0 919 1987 
0 919 9343 
0 919 10544 
0 917 6288 
0 917 2314 
0 917 7195 
0 917 7509 
0 915 12250 
0 915 3674 
0 915 5847 
0 915 1335 
0 915 11624 
0 913 676 
0 911 18136 
0 911 9079 
0 803 14610 
0 799 2530 
0 799 613 
0 799 2481 
0 797 15562 
0 797 2826 
0 797 415 
0 797 387 
0 797 3269 
0 797 6564 
0 797 14896 
0 797 7509 
0 795 7155 
0 795 10215 
0 795 6908 
0 795 7077 
0 795 2118 
0 795 14592 
0 795 3660 
0 795 14449 
0 795 9343 
0 850 4647 
0 850 5132 
0 850 5260 
0 850 1484 
0 850 893 
0 850 5025 
0 850 8045 
0 850 13400 
0 850 14530 
0 850 10955 
0 850 9421 
0 850 6209 
0 850 445 
0 850 2428 
0 850 16022 
0 850 5981 
0 850 11267 
0 850 5807 
0 850 5492 
0 850 3114 
0 850 4708 
0 850 7764 
0 850 10900 
0 850 16120 
0 850 1603 
0 850 3030 
0 850 1608 
0 850 218 
0 850 1259 
0 850 9170 
0 850 5892 
0 850 1475 
0 850 4461 
0 850 3655 
0 850 9119 
0 850 1064 
0 850 7432 
0 850 9246 
0 850 2128 
0 850 6354 
0 850 2716 
0 850 691 
0 850 35 
0 850 647 
0 850 1218 
0 850 1406 
0 850 1701 
0 850 4803 
0 850 9349 
0 850 5548 
0 850 1780 
0 850 3135 
0 850 2819 
0 850 484 
0 850 335 
0 850 4494 
0 850 6578 
0 850 9882 
0 850 11835 
0 850 8837 
0 850 1839 
0 850 4211 
0 850 7545 
0 850 5261 
0 850 7044 
0 850 10993 
0 850 2293 
0 850 11302 
0 850 911 
0 850 3782 
0 850 1504 
0 850 9871 
0 850 1017 
0 850 5554 
0 850 1656 
0 850 3250 
0 850 1118 
0 850 11123 
0 850 236 
0 850 159 
0 850 398 
0 850 172 
0 850 2693 
0 850 4102 
0 850 5442 
0 850 9432 
0 850 11700 
0 850 5276 
0 850 5398 
0 850 17801 
0 850 120 
0 850 2032 
0 850 2120 
0 850 1675 
0 850 114 
0 850 663 
0 850 10713 
0 850 207 
0 850 25 
0 850 1110 
0 850 741 
0 850 294 
0 850 7593 
0 850 11334 
0 850 1420 
0 851 3831 
0 851 5667 
0 851 3932 
0 851 164 
0 851 3903 
0 851 1551 
0 851 8419 
0 851 211 
0 851 13170 
0 851 4000 
0 851 1359 
0 851 805 
0 851 15 
0 851 419 
0 851 4758 
0 851 1589 
0 851 579 
0 851 515 
0 851 5817 
0 851 7554 
0 851 683 
0 851 148 
0 851 3084 
0 851 1179 
0 851 503 
0 851 6399 
0 851 10483 
0 851 3541 
1 764 1505 
1 764 11978 
1 764 13803 
1 764 10528 
1 662 327 
1 662 1640 
1 1689 4873 
1 654 14334 
1 1895 17549 
1 1895 13375 
1 1895 16975 
1 1895 13389 
1 658 14334 
1 1850 1552 
1 1850 13375 
1 1850 8452 
1 1850 7421 
1 1894 2885 
1 1894 2095 
1 1894 12961 
1 1894 3016 
1 1894 6143 
1 1857 17549 
1 1857 2885 
1 1857 2095 
1 1857 12961 
1 1857 3016 
1 1857 1552 
1 1857 13375 
1 1857 7048 
1 1857 16690 
1 1857 8279 
1 1857 16975 
1 1857 14661 
1 1857 17712 
1 1857 13389 
1 1857 6143 
1 1857 12816 
1 1857 11314 
1 1857 3220 
1 1857 1904 
1 1857 16582 
1 1857 8000 
1 1857 9461 
1 1857 13780 
1 1857 1541 
1 1857 2572 
1 1857 3613 
1 1857 16493 
1 1857 1415 
1 1857 1423 
1 1857 10687 
1 1857 10973 
1 1857 3414 
1 1857 4608 
1 1857 4222 
1 1857 552 
1 1857 7754 
1 1857 13287 
1 1857 57 
1 1857 8105 
1 1857 9127 
1 1857 4962 
1 1857 5338 
1 1857 2476 
1 1857 932 
1 1857 9582 
1 1857 3600 
1 1857 1203 
1 1857 9975 
1 1857 14760 
1 1857 6842 
1 1857 1771 
1 1857 3226 
1 1857 4166 
1 1857 3486 
1 1857 2397 
1 1857 3180 
1 1857 2733 
1 1875 17549 
1 1875 2885 
1 1875 2095 
1 1875 12961 
1 1875 3016 
1 1875 1552 
1 1875 13375 
1 1875 7048 
1 1875 16690 
1 1875 8279 
1 1875 16975 
1 1875 14661 
1 1875 17712 
1 1875 13389 
1 1875 6143 
1 1875 12816 
1 1875 11314 
1 1875 3220 
1 1875 16582 
1 1875 8000 
1 1875 9461 
1 1875 13780 
1 1875 1541 
1 1875 2572 
1 1875 3613 
1 1875 16493 
1 1875 1415 
1 1875 1423 
1 1875 8452 
1 1875 10687 
1 1875 10973 
1 1875 3414 
1 1875 4608 
1 1875 4222 
1 1875 552 
1 1875 7754 
1 1875 13287 
1 1875 8105 
1 1875 7421 
1 1875 9127 
1 1875 4962 
1 1875 5338 
1 1875 2476 
1 1875 932 
1 1875 9582 
1 1875 3600 
1 1875 9975 
1 1875 14760 
1 1875 6842 
1 1875 1771 
1 1875 3226 
1 1875 4166 
1 1875 3486 
1 1875 2397 
1 1875 3180 
1 1875 1601 
1 1875 2733 
1 1692 4873 
1 1856 8452 
1 1856 7421 
1 1856 1601 
1 1856 591 
1 563 6404 
1 562 5523 
1 1691 650 
1 1691 11427 
1 1691 9121 
1 514 6404 
1 514 6867 
1 514 2136 
1 477 153 
1 1695 11427 
1 1864 1904 
1 1864 1423 
1 1864 3945 
1 1864 57 
1 1864 13138 
1 1864 17764 
1 1864 4297 
1 1864 14081 
1 1864 18097 
1 513 2136 
1 516 153 
1 516 6867 
1 1863 3945 
1 1863 13138 
1 1863 17764 
1 1863 4297 
1 1863 14081 
1 1863 15583 
1 1879 1904 
1 1879 57 
1 1879 1203 
1 1879 2455 
1 1879 591 
1 515 6867 
1 515 2136 
1 560 5523 
1 478 153 
1 1862 8187 
1 1862 10582 
1 1862 17537 
1 1862 17508 
1 1862 15583 
1 1862 5316 
1 1862 13717 
1 1880 3220 
1 1880 1904 
1 1880 1423 
1 1880 18097 
1 1880 15703 
1 479 153 
1 660 5783 
1 660 1981 
1 660 6776 
1 660 3973 
1 660 9177 
1 660 2092 
1 660 6342 
1 660 4040 
1 660 11639 
1 660 3366 
1 660 1275 
1 660 1744 
1 660 2049 
1 660 10165 
1 1881 1904 
1 1881 3945 
1 1881 13138 
1 1881 17764 
1 1881 4297 
1 1881 14081 
1 1881 8187 
1 1881 10582 
1 1881 18097 
1 1881 17537 
1 1881 17508 
1 1694 11427 
1 1694 6040 
1 485 2455 
1 484 2455 
1 487 7958 
1 487 648 
1 1861 13717 
1 1861 18196 
1 1861 5628 
1 1861 12576 
1 1693 14783 
1 1822 15703 
1 1874 17537 
1 1874 17508 
1 1874 5316 
1 1874 13717 
1 1874 18196 
1 1874 5628 
1 1874 12576 
1 1873 5628 
1 1873 12576 
1 1873 15749 
1 1846 15703 
1 1821 15703 
1 1845 15703 
1 1882 17537 
1 1882 17508 
1 1882 15583 
1 1882 5316 
1 1883 17537 
1 1883 17508 
1 1883 15583 
1 1883 5316 
1 1883 13717 
1 1883 15703 
1 1823 15703 
1 488 648 
1 488 10718 
1 1889 17537 
1 1889 17508 
1 1889 5316 
1 1889 13717 
1 1824 15703 
1 1847 15703 
1 1890 17508 
1 1890 13717 
1 1890 18196 
1 491 3107 
1 490 10718 
1 490 3107 
1 554 14212 
1 494 12057 
1 494 10477 
1 1697 15540 
1 495 12057 
1 1891 13717 
1 1891 18196 
1 1891 5628 
1 1891 12576 
1 1891 15749 
1 1891 10571 
1 496 12057 
1 496 10477 
1 496 8397 
1 1893 12576 
1 763 1505 
1 763 11978 
1 763 1640 
1 763 13803 
1 763 274 
1 763 10528 
1 1892 12576 
1 1899 10636 
1 1872 15749 
1 1872 10571 
1 497 10477 
1 497 8397 
1 1696 9811 
1 498 8397 
1 661 5783 
1 661 1981 
1 661 3973 
1 661 2092 
1 661 4040 
1 661 327 
1 661 1275 
1 661 1744 
1 661 10165 
1 659 9177 
0 964 12068 
0 964 1630 
0 964 1682 
0 964 4100 
0 962 1614 
0 962 8490 
0 960 341 
0 960 10273 
0 960 2505 
0 960 8497 
0 960 5086 
0 960 15911 
0 958 4501 
0 958 12119 
0 958 11108 
0 958 7604 
0 958 9542 
0 958 1935 
0 958 3209 
0 956 947 
0 956 13995 
0 956 6175 
0 956 8290 
0 956 7054 
0 956 2112 
0 956 17684 
0 956 18077 
0 956 15906 
0 954 8010 
0 954 14782 
0 954 749 
0 954 4201 
0 954 6466 
0 954 13042 
0 954 5119 
0 954 17399 
0 895 2053 
0 895 9477 
0 895 5178 
0 895 10479 
0 895 15846 
0 895 9902 
0 895 7562 
0 895 4601 
0 895 13490 
0 895 16331 
0 895 2417 
0 895 13191 
0 895 2533 
0 895 2722 
0 895 2834 
0 895 14155 
0 895 15461 
0 895 10840 
0 895 5040 
0 895 16931 
0 895 3763 
0 895 14812 
0 895 9327 
0 895 2041 
0 895 15467 
0 895 15267 
0 895 3224 
0 895 4981 
0 758 15399 
0 758 14782 
0 758 749 
0 758 13995 
0 758 13680 
0 758 17909 
0 756 3126 
0 756 4824 
0 756 6858 
0 756 6708 
0 756 11370 
0 756 8806 
0 754 4501 
0 754 12119 
0 754 6301 
0 754 6612 
0 754 9684 
0 754 12029 
0 752 17354 
0 752 1224 
0 752 1024 
0 752 2559 
0 752 10747 
0 750 8629 
0 750 13658 
0 750 5355 
0 750 4282 
0 750 6969 
0 750 5568 
0 750 145 
0 750 5087 
0 750 2681 
0 750 612 
0 749 8677 
0 749 12068 
0 749 1630 
0 749 1682 
0 749 4100 
0 963 8629 
0 963 13658 
0 963 5355 
0 963 4282 
0 963 6969 
0 963 5568 
0 963 145 
0 963 5087 
0 963 9931 
0 963 2681 
0 963 612 
0 961 17354 
0 961 1224 
0 961 1024 
0 961 16921 
0 961 2559 
0 961 10747 
0 959 6301 
0 959 6612 
0 959 9684 
0 959 12029 
0 957 3126 
0 957 4824 
0 957 6858 
0 957 10855 
0 957 6708 
0 957 18077 
0 957 11370 
0 957 8806 
0 955 15399 
0 955 13995 
0 955 13680 
0 955 17909 
0 759 8010 
0 759 4201 
0 759 6466 
0 759 13042 
0 759 5119 
0 759 17399 
0 757 947 
0 757 6175 
0 757 8290 
0 757 7054 
0 757 2112 
0 757 10855 
0 757 17684 
0 757 18077 
0 757 15906 
0 755 11108 
0 755 7604 
0 755 9542 
0 755 1935 
0 755 3209 
0 753 341 
0 753 10273 
0 753 2505 
0 753 16921 
0 753 8497 
0 753 5086 
0 753 15911 
0 751 1614 
0 751 8490 
0 751 9931 
0 908 8677 
1 842 633 
1 842 9817 
1 842 2782 
1 842 14702 
1 842 4514 
1 842 7067 
1 842 3854 
1 842 9718 
1 842 3648 
1 2681 13143 
1 2691 404 
1 2691 13143 
1 2691 7992 
1 2691 1223 
1 2691 1157 
1 2691 4562 
1 2691 3103 
1 2691 2881 
1 2691 7726 
1 2691 7176 
1 2691 13475 
1 2691 3463 
1 2691 653 
1 2691 6727 
1 2691 470 
1 2691 13245 
1 2691 44 
1 2691 9500 
1 2691 14473 
1 2691 6653 
1 2691 4918 
1 2691 15962 
1 2691 4175 
1 2691 11408 
1 2691 12904 
1 2680 1223 
1 2680 1157 
1 2680 4562 
1 2680 3103 
1 2680 7726 
1 2680 7176 
1 2709 404 
1 2709 13143 
1 2709 7992 
1 2709 1223 
1 2709 1157 
1 2709 4562 
1 2709 3103 
1 2709 2881 
1 2709 7726 
1 2709 7176 
1 2709 13475 
1 2709 3463 
1 2709 653 
1 2709 6727 
1 2709 470 
1 2709 13245 
1 2709 44 
1 2709 9500 
1 2709 14473 
1 2709 6653 
1 2709 4918 
1 2709 15962 
1 2709 4175 
1 2709 11408 
1 2709 12904 
1 2690 5647 
1 2690 1746 
1 2706 9529 
1 2706 13104 
1 2706 16344 
1 2706 15625 
1 2706 15228 
1 2706 2037 
1 2692 7176 
1 2692 9500 
1 2692 14473 
1 2692 4175 
1 2692 1746 
1 2693 7176 
1 2693 9500 
1 2708 7176 
1 2708 9500 
1 2708 6610 
1 2708 17025 
1 2708 16201 
1 2708 5024 
1 2708 1462 
1 2707 6610 
1 2707 17025 
1 2707 16201 
1 2707 5024 
1 2710 5647 
1 2710 1746 
1 2720 7176 
1 2720 6610 
1 2720 17025 
1 2720 16201 
1 2720 5024 
1 2720 1462 
1 2711 7176 
1 2711 9500 
1 2711 4175 
1 2718 7176 
1 2718 9500 
1 2718 1462 
1 2510 7606 
1 2510 10777 
1 2507 10777 
1 2719 7176 
1 2719 9500 
1 2719 6610 
1 2719 17025 
1 2719 16201 
1 2719 5024 
1 2719 1462 
1 2519 7606 
1 2519 10777 
1 2520 10777 
1 2520 1733 
1 2509 9251 
1 2508 8777 
1 99 11513 
1 65 3232 
1 65 11513 
1 101 11513 
1 101 5715 
1 101 1733 
1 100 11513 
1 100 5715 
1 66 3232 
1 66 11513 
1 109 5495 
1 102 5715 
1 102 1733 
1 102 12098 
1 67 3232 
1 103 5715 
1 103 1733 
1 103 12098 
1 103 3877 
1 2522 1733 
1 2517 7606 
1 108 5495 
1 130 1462 
1 129 5495 
1 61 6289 
1 61 3232 
1 96 1733 
1 96 12098 
1 2705 9529 
1 2705 13104 
1 2705 16344 
1 2704 9529 
1 2704 13104 
1 2704 16344 
1 133 5495 
1 60 6289 
1 2697 498 
1 135 5495 
1 97 12098 
1 97 3877 
1 70 6289 
1 2516 7199 
1 2523 15843 
1 2721 15625 
1 2721 15228 
1 2721 2037 
1 2722 9529 
1 2722 13104 
1 2722 16344 
1 2722 15625 
1 2722 15228 
1 2722 2037 
1 136 5495 
1 98 3877 
1 98 496 
1 2500 7199 
1 140 5300 
1 2505 15843 
1 71 6289 
1 71 5647 
1 123 498 
1 72 951 
1 72 6289 
1 72 2180 
1 2698 9529 
1 2698 13104 
1 2698 16344 
1 2698 2037 
1 2698 15556 
1 114 5300 
1 94 6742 
1 94 496 
1 125 5300 
1 75 951 
1 75 2180 
1 75 12666 
1 2717 9529 
1 2717 13104 
1 2717 16344 
1 2717 11781 
1 2665 5997 
1 115 5300 
1 95 6742 
1 95 496 
1 2649 5997 
1 2648 5997 
1 74 951 
1 74 2180 
1 74 12666 
1 126 5300 
1 116 5300 
1 92 6742 
1 92 7085 
1 127 5300 
1 73 951 
1 73 13511 
1 2506 455 
1 2506 318 
1 2506 8705 
1 117 5300 
1 2499 6577 
1 2499 13681 
1 2499 7194 
1 91 11780 
1 91 16014 
1 2669 5997 
1 2703 498 
1 2703 17579 
1 2703 11781 
1 2528 7199 
1 2670 5997 
1 2702 17579 
1 2702 11781 
1 2672 498 
1 78 13511 
1 78 12666 
1 2512 318 
1 2716 498 
1 77 13511 
1 77 3958 
1 2671 5997 
1 2723 498 
1 2724 498 
1 2653 16014 
1 83 3958 
1 2527 391 
1 86 3859 
1 87 3859 
1 82 3958 
1 82 12798 
1 81 3958 
1 81 4402 
1 81 5674 
1 81 12798 
1 85 5674 
1 85 3859 
1 84 12798 
1 80 5674 
1 80 12798 
1 79 5674 
1 2502 6577 
1 2502 391 
1 2524 14257 
1 2525 391 
1 2525 4402 
1 2503 10717 
1 2503 738 
1 2504 14257 
1 2501 13308 
1 2501 10717 
1 2695 11780 
1 2695 16014 
1 2726 498 
1 2701 17579 
1 2701 11781 
1 2725 17579 
1 2725 11781 
1 2714 16014 
1 787 633 
1 787 9817 
1 787 2782 
1 787 297 
1 787 440 
1 787 14702 
1 2678 11780 
1 2712 11780 
1 2712 16014 
1 844 7975 
1 844 12354 
1 844 1116 
1 844 6801 
1 791 10037 
1 791 12479 
1 791 47 
1 791 11609 
1 789 11609 
1 841 2905 
1 841 10037 
1 841 12479 
1 841 47 
1 841 3854 
1 841 11609 
1 841 9718 
1 841 3648 
1 843 7975 
1 843 12354 
1 843 1116 
1 843 4514 
1 843 6801 
1 788 440 
0 853 9040 
0 853 7064 
0 853 7847 
0 853 1696 
0 853 9736 
0 853 10451 
0 853 9395 
0 853 14402 
0 853 16422 
0 853 14260 
0 853 16902 
0 853 13587 
0 853 3488 
0 853 8140 
0 853 4299 
0 853 6440 
0 853 13299 
0 853 5670 
0 853 714 
0 853 6836 
0 853 15852 
0 853 4332 
0 853 9641 
0 853 5762 
0 853 2529 
0 853 4152 
0 853 14615 
0 853 5039 
0 853 14468 
0 853 5612 
0 853 14267 
0 853 7029 
0 853 3464 
0 853 5856 
0 853 8116 
0 853 17767 
0 853 13061 
0 853 8027 
0 853 16839 
0 853 10560 
0 853 16336 
0 853 14690 
0 853 13618 
0 853 3276 
0 851 657 
0 851 6885 
0 851 10844 
0 851 169 
0 851 517 
0 851 549 
0 851 5623 
0 851 14534 
0 851 1122 
0 884 862 
0 884 5746 
0 884 12851 
0 884 15781 
0 884 16112 
0 884 8757 
0 884 1576 
0 884 5324 
0 884 10013 
0 884 2371 
0 884 3977 
0 884 14078 
0 884 2846 
0 884 9065 
0 884 17536 
0 884 10725 
0 884 15872 
0 884 8916 
0 884 14056 
0 884 12197 
0 884 410 
0 884 16330 
0 884 520 
0 884 17694 
0 884 3941 
0 884 12949 
0 884 17554 
0 884 12523 
0 884 6217 
0 884 5880 
0 884 5970 
0 884 13058 
0 884 3953 
0 884 17432 
0 884 7130 
0 884 12501 
0 884 5246 
0 884 2980 
0 884 16688 
0 884 17817 
0 884 1894 
0 884 6199 
0 884 16736 
0 884 18278 
0 884 6516 
0 884 15808 
0 884 15992 
0 884 12392 
0 884 10217 
0 884 14615 
0 884 18131 
0 884 17138 
0 884 9560 
0 884 3314 
0 884 2931 
0 884 5512 
0 884 11821 
0 884 16835 
0 884 13061 
0 884 1122 
0 885 3601 
0 885 7914 
0 885 12705 
0 885 657 
0 885 6885 
0 885 10844 
0 885 8778 
0 885 169 
0 885 517 
0 885 549 
0 885 5623 
0 885 7359 
0 885 6588 
0 885 15590 
0 885 14534 
0 885 18058 
0 885 10550 
0 885 14308 
0 850 862 
0 850 5746 
0 850 3977 
0 850 2846 
0 850 3601 
0 850 7914 
0 850 12705 
0 852 1050 
0 894 927 
0 894 5993 
0 894 5329 
0 894 17213 
0 894 11124 
0 894 26 
0 894 7885 
0 894 5716 
0 894 4542 
0 894 230 
0 894 7446 
0 894 17029 
0 894 196 
0 894 9680 
0 894 15126 
0 894 13052 
0 894 10343 
0 894 2951 
0 894 8671 
0 894 8842 
0 894 12279 
0 894 14070 
0 894 1287 
0 894 1300 
0 894 16624 
0 894 1427 
0 852 2968 
0 852 2869 
0 852 2904 
0 852 957 
0 852 5105 
0 852 12471 
0 849 1287 
0 849 1427 
0 895 2368 
0 895 11615 
0 895 10907 
0 895 16164 
0 895 14096 
0 895 4593 
0 895 7550 
0 895 13760 
0 895 9667 
0 895 9886 
0 895 8779 
0 895 4793 
0 895 17790 
0 895 8099 
0 895 9176 
0 895 11782 
0 895 8547 
0 895 16525 
0 895 3251 
0 895 12235 
0 895 10385 
0 895 11944 
0 895 6759 
0 895 8387 
0 895 7334 
0 895 8256 
0 895 7282 
0 895 6026 
0 895 8840 
0 895 9742 
0 895 6859 
0 895 4471 
0 895 4635 
0 895 15276 
0 895 16686 
0 895 3845 
0 895 2304 
0 895 8951 
0 895 1427 
0 848 26 
0 925 11031 
0 925 478 
0 925 6155 
0 923 381 
0 923 844 
0 923 333 
0 923 67 
0 921 7855 
0 921 443 
0 921 4979 
0 921 554 
0 921 1525 
0 921 1077 
0 793 2279 
0 793 15088 
0 793 7855 
0 793 443 
0 793 4979 
0 793 554 
0 793 1525 
0 793 1077 
0 791 844 
0 791 333 
0 791 67 
0 789 11031 
0 789 478 
0 789 6155 
0 781 2082 
0 932 2082 
0 920 2279 
0 920 15088 
0 790 381 
0 939 18409 
1 1504 1818 
1 1519 1818 
1 1538 1818 
0 953 17557 
0 953 12494 
0 953 7792 
0 953 18156 
0 947 18302 
0 760 17557 
0 760 12494 
0 760 7792 
0 760 18156 
1 2289 2815 
1 2259 6833 
1 2258 11051 
1 2258 16102 
1 2287 11051 
1 2287 16102 
1 2287 6833 
1 2287 2026 
1 2287 12106 
1 2274 11051 
1 2274 16102 
1 2274 6833 
1 2274 2026 
1 2274 2815 
1 2274 12106 
1 2276 2815 
1 2275 2815 
1 2288 2815 
1 2286 7736 
1 2285 7736 
1 2300 7736 
1 2303 7736 
1 2302 7736 
0 919 14455 
0 919 14872 
0 919 624 
0 919 1085 
0 919 10030 
0 919 11262 
0 919 6599 
0 919 2485 
0 919 7263 
0 919 3531 
0 919 222 
0 919 6716 
0 919 3203 
0 919 254 
0 919 45 
0 919 388 
0 919 523 
0 919 7 
0 919 4220 
0 919 949 
0 917 17191 
0 917 5242 
0 917 14720 
0 917 9590 
0 917 10174 
0 917 2252 
0 917 213 
0 917 504 
0 917 3329 
0 917 7565 
0 917 3507 
0 917 7994 
0 917 1547 
0 917 5998 
0 917 1395 
0 917 2081 
0 917 2783 
0 917 898 
0 917 2715 
0 917 3333 
0 917 267 
0 917 1267 
0 917 4532 
0 915 14122 
0 915 16737 
0 915 2892 
0 915 5940 
0 915 5366 
0 915 6625 
0 915 10280 
0 915 6182 
0 915 7081 
0 915 1168 
0 913 930 
0 911 6575 
0 911 2131 
0 911 10267 
0 911 593 
0 906 5585 
0 904 108 
0 904 2489 
0 904 11317 
0 902 956 
0 902 29 
0 902 8376 
0 901 5971 
0 900 567 
0 900 797 
0 886 380 
0 803 2131 
0 803 10267 
0 803 593 
0 801 930 
0 799 16737 
0 799 5940 
0 799 5366 
0 799 6625 
0 799 10280 
0 799 6182 
0 799 7081 
0 799 1168 
0 797 5242 
0 797 9590 
0 797 10174 
0 797 11719 
0 797 213 
0 797 3329 
0 797 7565 
0 797 3507 
0 797 7994 
0 797 1547 
0 797 5998 
0 797 1395 
0 797 2081 
0 797 2783 
0 797 898 
0 797 2715 
0 797 3333 
0 797 267 
0 797 1267 
0 797 4532 
0 795 5812 
0 795 14455 
0 795 7076 
0 795 14872 
0 795 9650 
0 795 15400 
0 795 624 
0 795 1085 
0 795 10030 
0 795 8109 
0 795 11262 
0 795 6599 
0 795 2485 
0 795 7263 
0 795 3531 
0 795 222 
0 795 6716 
0 795 3203 
0 795 254 
0 795 45 
0 795 388 
0 795 523 
0 795 7 
0 795 4220 
0 795 949 
0 743 567 
0 743 797 
0 742 956 
0 742 29 
0 742 5971 
0 741 8376 
0 740 108 
0 740 2489 
0 740 11317 
0 735 949 
0 682 8376 
0 671 7081 
0 670 6182 
0 669 4532 
0 668 2715 
0 361 949 
0 360 2715 
0 358 4532 
0 358 6182 
0 357 7081 
0 345 8376 
0 918 5812 
0 918 7076 
0 918 9650 
0 918 15400 
0 918 8109 