ITEM: TIMESTEP
20000000
ITEM: NUMBER OF ENTRIES
531
ITEM: BOX BOUNDS ff ff ff
-0.01 0.45
-0.15 0.15
-0.08 0.1
ITEM: ENTRIES c_pwc[1] c_pwc[2] c_pwc[3] 
0 859 2504 
0 918 1271 
0 796 1271 
0 794 1271 
0 958 477 
0 850 1707 
0 850 41 
0 850 480 
0 850 286 
0 885 2495 
0 885 1707 
0 885 41 
0 885 480 
0 884 2321 
0 884 445 
0 884 286 
0 854 2089 
0 855 1390 
0 884 300 
0 884 2431 
0 884 679 
0 884 1473 
0 884 1161 
0 854 823 
0 854 1407 
0 854 1573 
0 854 1185 
0 854 1479 
0 854 1391 
0 854 2247 
0 854 1510 
0 854 497 
0 854 501 
0 854 2412 
0 854 1172 
0 854 1360 
0 854 190 
0 854 623 
0 853 1866 
0 853 17 
0 853 2272 
0 852 623 
0 852 2385 
0 852 266 
0 894 630 
0 894 1690 
0 894 1124 
0 894 895 
0 894 1432 
0 894 638 
0 852 1530 
0 855 1540 
0 855 401 
0 855 525 
0 855 1259 
0 854 2077 
0 854 2027 
0 854 356 
0 854 1541 
0 854 1733 
0 935 2106 
0 933 2501 
0 940 2330 
0 940 2090 
0 948 1572 
1 138 1377 
1 92 2045 
1 91 2045 
1 63 2045 
1 85 2045 
1 86 2045 
1 137 1377 
1 134 1377 
1 136 1377 
1 125 1377 
1 123 1377 
1 2650 1377 
1 2649 1377 
1 120 1377 
1 124 1377 
1 126 1377 
1 2647 1377 
1 2707 1377 
1 2644 1377 
1 2673 1377 
1 2674 1377 
1 2672 1377 
1 2724 1377 
1 2702 1377 
1 2722 1377 
1 2721 1377 
1 2703 1377 
1 2726 1377 
1 477 146 
1 1861 417 
1 1874 417 
1 528 417 
1 530 417 
1 1883 417 
1 1889 417 
1 529 417 
1 479 146 
1 1890 417 
1 485 146 
1 1845 417 
1 486 146 
1 1847 417 
1 1824 417 
1 487 146 
1 1828 417 
1 1842 417 
1 1848 417 
1 488 146 
1 1831 417 
1 1830 417 
1 1827 417 
1 527 417 
1 541 417 
1 525 417 
1 1871 417 
1 1892 417 
1 1893 417 
1 1885 417 
0 885 270 
0 885 969 
0 885 48 
0 885 127 
0 885 52 
0 885 908 
0 885 276 
0 885 352 
0 885 6 
0 885 351 
0 885 45 
0 885 39 
0 850 270 
0 850 969 
0 850 48 
0 850 127 
0 850 52 
0 850 908 
0 850 276 
0 850 352 
0 850 6 
0 850 351 
0 850 45 
0 851 39 
0 853 2282 
0 853 703 
0 853 1281 
0 853 2121 
0 853 308 
0 853 603 
0 853 1421 
0 853 1149 
0 853 2120 
0 853 930 
0 853 2418 
0 853 2011 
0 853 1855 
0 853 1489 
0 853 403 
0 853 1381 
0 853 2287 
0 853 1120 
0 853 743 
0 853 1806 
0 853 2099 
0 853 454 
0 853 187 
0 853 574 
0 853 663 
0 884 788 
0 884 1210 
0 884 394 
0 884 1199 
0 884 1376 
0 884 493 
0 885 2304 
0 885 81 
0 850 788 
0 852 2329 
0 852 1759 
0 894 111 
0 894 798 
0 894 1094 
0 894 1904 
0 894 1763 
0 852 871 
0 852 746 
0 852 752 
0 852 2285 
0 895 2288 
0 895 2231 
0 895 1596 
0 895 2145 
0 939 2492 
0 927 1296 
0 915 696 
0 961 1029 
0 961 1087 
0 961 40 
0 959 2465 
0 955 1221 
0 759 1221 
0 753 1029 
0 753 1087 
0 753 40 
1 505 1851 
1 1687 2070 
1 504 1851 
1 557 2070 
1 503 1851 
1 502 1851 
1 558 2070 
1 1698 2070 
1 1859 1851 
1 1855 1851 
1 1854 1851 
0 907 1767 
0 903 2503 
0 886 15 
0 885 15 
0 850 15 
0 966 243 
0 889 2075 
0 888 2424 
0 888 1582 
0 888 1135 
0 888 2296 
0 888 2278 
0 888 818 
0 888 1197 
0 888 1613 
0 888 737 
0 888 2338 
0 888 2409 
0 888 136 
0 853 1661 
0 853 136 
0 890 2057 
0 890 2225 
0 885 1441 
0 891 206 
0 891 1611 
0 895 2309 
0 888 2136 
0 888 395 
0 888 848 
0 385 1946 
0 385 1365 
0 375 1215 
0 393 2220 
0 391 1175 
1 2612 648 
0 437 1586 
0 435 1752 
0 435 2273 
0 433 1439 
0 431 2466 
0 407 2355 
0 407 163 
0 431 455 
0 431 783 
0 431 2222 
0 427 2085 
0 423 1356 
0 419 475 
0 430 783 
0 424 387 
0 415 1633 
0 419 2317 
0 394 1612 
0 392 2154 
0 390 993 
0 390 1527 
0 388 1156 
0 393 1560 
0 391 2186 
0 389 1493 
0 372 554 
0 368 948 
0 373 596 
0 373 217 
0 366 772 
0 366 1947 
1 2131 217 
0 396 2461 
0 438 1003 
0 437 1059 
0 406 2483 
0 405 2416 
0 428 306 
0 431 998 
0 425 1121 
0 421 2324 
0 421 2469 
0 415 1225 
0 413 1973 
0 411 2150 
0 529 1061 
0 382 1139 
0 378 1874 
0 374 1578 
0 545 2303 
0 539 881 
0 392 873 
0 390 2400 
0 364 835 
0 547 2481 
0 589 1488 
0 585 499 
0 448 414 
0 434 414 
0 434 103 
0 478 834 
0 410 1976 
0 408 1384 
0 404 834 
0 581 1157 
0 581 1698 
0 579 1315 
0 577 294 
0 575 16 
0 571 771 
0 571 1981 
0 426 1914 
0 424 2289 
0 569 98 
0 569 1397 
0 537 1109 
0 535 518 
0 533 235 
0 527 879 
0 532 773 
0 532 10 
0 528 694 
0 545 1353 
0 539 54 
0 539 2376 
0 525 2323 
0 523 1242 
0 523 537 
0 521 198 
0 519 1936 
0 519 1695 
0 553 558 
0 551 1556 
0 549 23 
0 549 291 
0 549 297 
0 547 946 
0 554 2191 
0 589 797 
0 589 327 
0 587 1405 
0 588 1920 
0 586 337 
0 584 646 
0 583 611 
0 557 1151 
0 557 449 
0 581 677 
0 575 1014 
0 571 1336 
0 569 876 
0 565 2095 
0 563 1962 
0 536 2200 
0 536 2088 
0 532 115 
0 530 2223 
0 529 246 
0 546 1462 
0 544 2318 
0 542 443 
0 545 868 
0 543 1269 
0 524 1277 
0 521 1997 
0 552 1450 
0 550 210 
0 548 2244 
0 548 487 
0 553 412 
0 590 1368 
0 586 836 
0 584 549 
0 587 498 
0 556 1655 
0 559 328 
0 555 975 
0 582 315 
0 582 1434 
0 578 1843 
0 574 1022 
0 572 506 
0 575 1461 
0 568 864 
0 566 269 
0 1061 120 
0 1057 1503 
0 1055 1793 
0 1055 34 
0 534 2175 
0 1071 255 
0 1065 1528 
0 1065 532 
0 1049 713 
0 1047 363 
0 1045 1500 
0 1045 840 
0 524 1859 
0 1077 2275 
0 1075 1412 
0 550 1751 
0 1111 160 
0 1081 409 
0 558 292 
0 1089 982 
0 1097 1143 
0 1097 188 
0 1095 1769 
0 1095 502 
0 1093 1325 
0 1092 2133 
0 1055 705 
0 1055 62 
0 1052 1378 
0 1072 277 
0 1071 2061 
0 1069 2374 
0 1067 1002 
0 1051 2035 
0 1049 1577 
0 1044 189 
0 1042 1741 
0 1080 996 
0 1075 396 
0 1074 1211 
0 1113 2311 
0 1113 88 
0 1110 124 
0 1043 1828 
0 1087 272 
0 1087 67 
0 1087 760 
0 1086 419 
0 1086 1648 
0 1086 1037 
0 1081 2224 
0 1105 1881 
0 1103 1453 
0 1103 428 
0 1101 896 
0 1099 2433 
0 1097 1562 
0 1094 2383 
0 1093 847 
0 1093 1322 
0 1089 346 
0 1279 927 
0 1064 614 
0 1064 1457 
0 1064 687 
0 1064 435 
0 1058 424 
0 1297 669 
0 1295 2051 
0 1072 219 
0 1070 1194 
0 1068 579 
0 1066 1537 
0 1066 1939 
0 1050 1442 
0 1050 973 
0 1047 900 
0 1301 2419 
0 1197 504 
0 1339 504 
0 1112 509 
0 1112 50 
0 1110 1007 
0 1226 546 
0 1311 546 
0 1086 546 
0 1084 1940 
0 1084 263 
0 1082 2021 
0 1333 1431 
0 1102 1815 
0 1102 1463 
0 1100 46 
0 1100 301 
0 1094 838 
0 1094 1779 
0 1090 697 
0 1289 1422 
0 1285 2001 
0 1297 1067 
0 1293 785 
0 1291 1341 
0 1276 461 
0 1274 35 
0 1305 915 
0 1302 1896 
0 1301 1896 
0 1340 85 
0 1269 1996 
0 1268 1996 
0 1313 613 
0 1333 1362 
0 1332 2202 
0 1330 725 
0 1325 2046 
0 1323 1116 
1 1412 2202 
0 1321 236 
0 1320 32 
0 103 943 
0 157 1460 
0 1296 686 
0 93 223 
0 1268 958 
0 143 191 
0 1310 1941 
0 1308 1604 
0 1320 476 
0 99 2029 
0 141 368 
0 138 372 
