ITEM: TIMESTEP
10800000
ITEM: NUMBER OF ENTRIES
5999
ITEM: BOX BOUNDS ff ff ff
-0.01 0.45
-0.15 0.15
-0.08 0.1
ITEM: ENTRIES c_pwc[1] c_pwc[2] c_pwc[3] 
0 837 38372 
0 936 20782 
0 934 33214 
0 930 42863 
0 922 32855 
0 786 28140 
0 780 40449 
0 780 38372 
0 780 41675 
0 780 21345 
0 780 39891 
0 780 29314 
0 780 22499 
0 780 36129 
0 780 35067 
0 780 2336 
0 778 22752 
0 778 31297 
0 778 4814 
0 778 23206 
0 778 9067 
0 778 39511 
0 778 21672 
0 778 11379 
0 778 12179 
0 778 22055 
0 778 14887 
0 778 28359 
0 778 23944 
0 778 18984 
0 778 4931 
0 778 19527 
0 778 32414 
0 778 17062 
0 778 8718 
0 778 27311 
0 778 31629 
0 778 29889 
0 778 19303 
0 778 35737 
0 778 1222 
0 778 20508 
0 778 25216 
0 778 23030 
0 778 40022 
0 778 26823 
0 778 15936 
0 778 18232 
0 778 28694 
0 778 23910 
0 778 19641 
0 778 28821 
0 778 29864 
0 778 31143 
0 778 29610 
0 778 30109 
0 778 11254 
0 778 24186 
0 778 40884 
0 778 31691 
0 778 30376 
0 778 6692 
0 778 28989 
0 778 22955 
0 778 20295 
0 778 3948 
0 778 29331 
0 778 30985 
0 778 11036 
0 778 1736 
0 778 3266 
0 778 27844 
0 778 8055 
0 778 7479 
0 778 14949 
0 778 27062 
0 778 7810 
0 778 29349 
0 778 25948 
0 778 33328 
0 778 32563 
0 778 23242 
0 778 31739 
0 778 31024 
0 778 17714 
0 778 3111 
0 778 30799 
0 778 31678 
0 778 36382 
0 778 13144 
0 778 22178 
0 778 7278 
0 778 39737 
0 778 36057 
0 778 4226 
0 778 27104 
0 778 37213 
0 778 26011 
0 778 34806 
0 778 21324 
0 778 29077 
0 778 20948 
0 778 14196 
0 778 17898 
0 778 31554 
0 778 6422 
0 778 10813 
0 778 36456 
0 778 28157 
0 778 28705 
0 778 37861 
0 778 28618 
0 778 25449 
0 778 4995 
0 778 18943 
0 778 17545 
0 778 23642 
0 778 37923 
0 778 36896 
0 778 13049 
0 778 15647 
0 776 21001 
0 776 20327 
0 776 11340 
0 776 9161 
0 776 12230 
0 776 12331 
0 776 3802 
0 776 2848 
0 776 2628 
0 776 635 
0 776 3495 
0 776 17965 
0 776 3328 
0 776 15691 
0 776 4472 
0 776 3443 
0 776 991 
0 776 8885 
0 776 17553 
0 776 6332 
0 776 75 
0 776 344 
0 776 2481 
0 776 1547 
0 776 3215 
0 776 1337 
0 776 22393 
0 776 13766 
0 776 19573 
0 776 17386 
0 776 3447 
0 776 860 
0 776 2692 
0 776 7020 
0 776 19717 
0 776 9537 
0 776 19409 
0 776 17646 
0 776 265 
0 776 2321 
0 776 3436 
0 776 1195 
0 776 20569 
0 776 20364 
0 776 17083 
0 776 2577 
0 776 258 
0 776 2330 
0 776 12369 
0 776 20062 
0 776 3662 
0 776 3445 
0 776 1416 
0 776 733 
0 776 15245 
0 776 25930 
0 776 7932 
0 776 20632 
0 776 3708 
0 776 3061 
0 776 2624 
0 776 3875 
0 776 17489 
0 776 2019 
0 776 7972 
0 776 3564 
0 776 3933 
0 776 2442 
0 776 20137 
0 776 27830 
0 776 20350 
0 776 4876 
0 776 945 
0 776 6927 
0 776 500 
0 776 29216 
0 776 2872 
0 776 1460 
0 776 7101 
0 776 26893 
0 776 18386 
0 776 2200 
0 776 1060 
0 776 14951 
0 776 10436 
0 776 2212 
0 776 12670 
0 776 26008 
0 776 16554 
0 776 24459 
0 776 4143 
0 776 11984 
0 776 2058 
0 776 26289 
0 776 23666 
0 776 17610 
0 776 24816 
0 776 16845 
0 776 13565 
0 776 26107 
0 776 1861 
0 776 4088 
0 776 166 
0 776 3251 
0 776 6714 
0 776 13710 
0 776 24645 
0 776 3311 
0 776 41 
0 776 2436 
0 776 16100 
0 779 11799 
0 779 40315 
0 779 41736 
0 777 19656 
0 777 16378 
0 777 18439 
0 777 9483 
0 777 28871 
0 777 32490 
0 777 30901 
0 777 10606 
0 777 14849 
0 777 25944 
0 777 18116 
0 777 20386 
0 775 6901 
0 775 6504 
0 775 1247 
0 775 14535 
0 775 14722 
0 775 10384 
0 775 4276 
0 775 4015 
0 775 353 
0 775 5712 
0 775 6438 
0 775 9193 
0 775 10980 
0 775 8809 
0 775 19818 
0 775 15855 
0 839 7083 
0 839 6798 
0 839 5193 
0 838 22752 
0 838 31297 
0 838 4814 
0 838 23206 
0 838 9067 
0 838 11379 
0 838 12179 
0 832 21001 
0 832 11340 
0 832 12230 
0 832 12331 
0 832 3802 
0 832 2848 
0 832 2628 
0 774 7083 
0 774 6798 
0 774 5193 
0 774 7473 
0 774 8984 
0 774 5179 
0 774 5200 
0 774 354 
0 774 8772 
0 774 3242 
0 774 5508 
0 774 7999 
0 774 2163 
0 774 10031 
0 774 23460 
0 774 7572 
0 774 18257 
0 774 14746 
0 774 16543 
0 774 18165 
0 774 8871 
0 774 5087 
0 774 18601 
0 774 957 
0 774 15288 
0 774 21212 
0 774 18469 
0 774 18334 
0 774 1236 
0 774 14208 
0 774 14152 
0 839 10445 
0 839 2634 
0 839 3722 
0 839 6601 
0 774 10445 
0 774 2634 
0 774 3722 
0 774 6601 
0 774 30004 
0 774 37675 
0 774 12538 
0 774 2326 
0 774 7447 
0 774 25997 
0 774 9440 
0 774 15723 
0 774 13893 
0 774 13473 
0 774 30166 
0 774 6882 
0 774 2914 
0 774 17051 
0 774 37832 
0 774 10886 
0 774 2567 
0 774 4587 
0 774 27298 
0 774 28444 
0 774 40805 
0 774 28354 
0 774 31834 
0 774 31172 
0 774 39955 
0 774 25971 
0 774 27416 
0 774 10618 
0 774 12919 
0 774 29808 
0 774 18961 
0 774 4560 
0 774 14283 
0 774 30536 
0 774 14048 
0 774 28166 
0 774 21051 
0 774 16890 
0 774 27254 
0 774 33899 
0 774 24863 
0 774 22964 
0 774 4049 
0 774 2148 
0 774 5787 
0 774 4842 
0 774 16263 
0 774 19104 
0 774 14905 
0 774 39830 
0 774 2391 
0 774 27302 
0 774 31351 
0 774 31207 
0 774 3604 
0 774 11956 
0 772 39731 
0 772 18627 
0 768 41831 
1 661 8970 
1 660 8970 
0 863 17738 
0 863 591 
0 863 28215 
0 862 17759 
0 850 1379 
0 850 2603 
0 850 9078 
0 850 2642 
0 850 31828 
0 850 868 
0 850 1600 
0 850 8198 
0 850 538 
0 850 8762 
0 850 1285 
0 850 27494 
0 850 9278 
0 850 563 
0 850 2940 
0 850 893 
0 850 4029 
0 850 12368 
0 850 33950 
0 850 5215 
0 850 1692 
0 850 4567 
0 850 9115 
0 850 4547 
0 850 14107 
0 850 5208 
0 850 7472 
0 850 20835 
0 850 32216 
0 850 21751 
0 850 730 
0 850 3809 
0 850 18931 
0 850 4986 
0 850 1478 
0 850 25492 
0 850 36352 
0 850 20281 
0 850 1876 
0 850 25768 
0 850 5673 
0 850 25619 
0 850 12104 
0 850 16952 
0 850 2415 
0 850 22789 
0 850 28287 
0 850 7628 
0 850 1578 
0 850 26197 
0 850 2440 
0 850 7242 
0 850 25302 
0 850 601 
0 850 2970 
0 850 33176 
0 850 18147 
0 850 24188 
0 850 30185 
0 850 2618 
0 850 36036 
0 850 4659 
0 850 11349 
0 850 2064 
0 850 30228 
0 850 3329 
0 850 1596 
0 850 304 
0 850 15883 
0 850 34446 
0 850 25092 
0 850 5989 
0 830 1379 
0 821 17759 
0 821 17738 
0 820 591 
0 885 893 
0 885 5215 
0 885 1692 
0 885 9115 
0 885 4547 
0 885 14107 
0 885 32216 
0 885 21751 
0 885 730 
0 885 3809 
0 885 4986 
0 885 1478 
0 885 25492 
0 885 20281 
0 885 1876 
0 885 25768 
0 885 25619 
0 885 12104 
0 885 16952 
0 885 2415 
0 885 22789 
0 885 7628 
0 885 1578 
0 885 26197 
0 885 2440 
0 885 25302 
0 885 601 
0 885 2970 
0 885 18147 
0 885 24188 
0 885 30185 
0 885 2618 
0 885 36036 
0 885 4659 
0 885 11349 
0 885 30228 
0 885 3329 
0 885 15883 
0 885 34446 
0 885 25092 
0 884 1379 
0 884 2603 
0 884 9078 
0 884 2642 
0 884 31828 
0 884 868 
0 884 1600 
0 884 8198 
0 884 538 
0 884 8762 
0 884 1285 
0 884 27494 
0 884 9278 
0 884 563 
0 884 2940 
0 884 4029 
0 884 12368 
0 884 33950 
0 884 4567 
0 884 5208 
0 884 7472 
0 884 20835 
0 884 18931 
0 884 36352 
0 884 5673 
0 884 28287 
0 884 7242 
0 884 33176 
0 884 2064 
0 884 1596 
0 884 304 
0 884 5989 
0 854 17445 
0 855 31447 
0 866 3141 
0 866 445 
0 866 5184 
0 866 26004 
0 866 20793 
0 866 5613 
0 855 19916 
0 855 38118 
0 855 16997 
0 855 973 
0 855 9735 
0 855 14000 
0 855 26607 
0 855 10084 
0 855 25716 
0 855 30125 
0 855 16690 
0 855 36780 
0 855 3544 
0 855 29484 
0 855 7605 
0 855 33687 
0 855 34324 
0 855 34955 
0 855 16279 
0 855 22300 
0 855 29800 
0 855 18547 
0 855 16921 
0 855 27037 
0 855 35773 
0 855 6105 
0 855 35398 
0 855 21571 
0 855 12970 
0 855 18842 
0 855 26650 
0 895 36504 
0 895 32862 
0 895 38233 
0 895 24120 
0 895 3779 
0 895 16500 
0 895 3306 
0 895 27355 
0 895 16458 
0 895 252 
0 895 25662 
0 895 25744 
0 895 28247 
0 895 23788 
0 895 6968 
0 895 22781 
0 895 10531 
0 895 38124 
0 895 39382 
0 895 934 
0 848 934 
0 848 5042 
0 894 26716 
0 894 25716 
0 894 18547 
0 894 20811 
0 894 3703 
0 894 4767 
0 894 19015 
0 894 8611 
0 894 31336 
0 894 20778 
0 894 21436 
0 894 3163 
0 894 2979 
0 894 36387 
0 894 37152 
0 894 11849 
0 894 23676 
0 894 37988 
0 894 5263 
0 894 6494 
0 894 19878 
0 894 17346 
0 894 13778 
0 894 28427 
0 894 31466 
0 894 33366 
0 894 33177 
0 894 30987 
0 894 20653 
0 894 4828 
0 894 5737 
0 894 21197 
0 894 35562 
0 894 934 
0 894 5042 
0 894 40 
0 849 40 
0 868 3077 
0 861 4760 
0 861 10690 
0 861 2472 
0 861 33925 
0 861 3799 
0 861 230 
0 861 1963 
0 861 1051 
0 861 7970 
0 861 6851 
0 861 2393 
0 861 28410 
0 861 2083 
0 861 6972 
0 857 3629 
0 857 5836 
0 857 7933 
0 857 16326 
0 857 3913 
0 857 8847 
0 857 3861 
0 857 37672 
0 857 3534 
0 857 3077 
0 822 4760 
0 822 10690 
0 822 2472 
0 822 33925 
0 822 3799 
0 822 230 
0 822 1963 
0 822 1051 
0 822 7970 
0 822 6851 
0 822 2393 
0 822 28410 
0 822 2083 
0 822 6972 
0 821 8847 
0 821 3861 
0 821 37672 
0 821 3534 
0 821 3077 
0 820 3629 
0 820 5836 
0 820 7933 
0 820 16326 
0 820 3913 
0 858 15365 
0 858 3601 
0 858 18977 
0 858 15764 
0 858 28252 
0 858 3276 
0 858 9843 
0 858 2607 
0 858 14549 
0 828 3141 
0 828 445 
0 828 5184 
0 828 26004 
0 828 20793 
0 828 5613 
0 827 15365 
0 827 3601 
0 827 18977 
0 827 15764 
0 827 28252 
0 827 3276 
0 827 9843 
0 827 2607 
0 827 14549 
0 826 15365 
0 826 3601 
0 826 18977 
0 884 3334 
0 884 3700 
0 884 9555 
0 884 17777 
0 884 67 
0 884 27346 
0 884 14314 
0 884 671 
0 884 18935 
0 884 6052 
0 884 24426 
0 884 5337 
0 884 3600 
0 884 773 
0 884 13190 
0 884 14869 
0 884 28491 
0 884 12356 
0 884 13450 
0 884 9772 
0 884 26140 
0 884 17000 
0 884 25458 
0 884 7671 
0 884 5110 
0 884 12952 
0 884 19816 
0 884 18635 
0 884 16850 
0 884 4147 
0 884 20994 
0 884 37670 
0 884 9276 
0 884 28326 
0 884 17563 
0 884 31675 
0 884 30710 
0 884 6887 
0 884 26463 
0 884 18898 
0 884 15636 
0 884 10418 
0 884 1994 
0 884 34571 
0 884 3603 
0 884 11572 
0 884 24540 
0 884 4096 
0 884 26518 
0 884 2702 
0 884 5439 
0 884 27320 
0 884 14524 
0 884 6622 
0 884 20693 
0 884 23659 
0 884 26254 
0 884 7064 
0 884 3746 
0 884 16891 
0 884 14745 
0 884 965 
0 884 3596 
0 884 25958 
0 884 12884 
0 884 11513 
0 884 15836 
0 884 18224 
0 884 22539 
0 884 10377 
0 884 37458 
0 884 26028 
0 884 10836 
0 884 5196 
0 884 5661 
0 884 11829 
0 884 3192 
0 884 23388 
0 884 17973 
0 884 22937 
0 884 31685 
0 884 870 
0 884 5918 
0 884 8711 
0 884 18886 
0 884 12119 
0 884 2920 
0 884 892 
0 884 9386 
0 884 38665 
0 884 11699 
0 884 32087 
0 884 14424 
0 884 24167 
0 884 21367 
0 884 29201 
0 884 18569 
0 884 17175 
0 884 12805 
0 884 34928 
0 884 21237 
0 884 3616 
0 884 15239 
0 884 20978 
0 884 14362 
0 884 12680 
0 884 23420 
0 884 26265 
0 884 7638 
0 884 2017 
0 884 22826 
0 884 37563 
0 884 13101 
0 884 27934 
0 884 13760 
0 884 9071 
0 884 10760 
0 884 26785 
0 884 26435 
0 884 16689 
0 884 38091 
0 884 12081 
0 884 20284 
0 884 26178 
0 884 11099 
0 884 19461 
0 884 2538 
0 884 38462 
0 884 32501 
0 884 23985 
0 884 32007 
0 884 26360 
0 884 14220 
0 884 5962 
0 884 27688 
0 884 16751 
0 884 24784 
0 884 22757 
0 884 26614 
0 884 25222 
0 884 34267 
0 884 33306 
0 884 7043 
0 884 9422 
0 884 24431 
0 884 21478 
0 884 3085 
0 884 38389 
0 884 4406 
0 884 18839 
0 884 22547 
0 884 32398 
0 884 25511 
0 884 7061 
0 884 19146 
0 884 530 
0 884 25681 
0 884 17819 
0 884 13961 
0 884 11478 
0 854 1445 
0 854 5325 
0 854 5969 
0 854 5158 
0 854 231 
0 854 6974 
0 854 3282 
0 854 16877 
0 854 679 
0 854 15449 
0 854 6402 
0 854 8254 
0 854 4326 
0 854 5420 
0 854 12755 
0 854 1603 
0 854 9720 
0 854 2319 
0 854 723 
0 854 28029 
0 854 2470 
0 854 1191 
0 854 8862 
0 854 2935 
0 854 13076 
0 854 287 
0 854 8257 
0 854 17330 
0 854 41924 
0 854 23293 
0 854 18630 
0 854 24241 
0 854 16286 
0 854 26836 
0 854 42411 
0 854 31337 
0 854 28767 
0 854 315 
0 854 31267 
0 854 35695 
0 854 23728 
0 854 37220 
0 854 5919 
0 854 35419 
0 854 31196 
0 854 22656 
0 854 13820 
0 854 18141 
0 854 9308 
0 854 26030 
0 854 28316 
0 854 16152 
0 854 38265 
0 854 9121 
0 854 27556 
0 854 28829 
0 854 17750 
0 854 10068 
0 854 27763 
0 854 15420 
0 854 21780 
0 854 1383 
0 854 17806 
0 854 13240 
0 854 22252 
0 854 27203 
0 854 23019 
0 854 10365 
0 854 31673 
0 854 34628 
0 854 21293 
0 854 19150 
0 854 12903 
0 854 19601 
0 854 30217 
0 854 2066 
0 854 21860 
0 854 27906 
0 854 22110 
0 854 32248 
0 854 5301 
0 854 12874 
0 854 2140 
0 854 6466 
0 854 29587 
0 854 2988 
0 854 25408 
0 854 27186 
0 854 12498 
0 854 20437 
0 854 14164 
0 854 8085 
0 854 15168 
0 854 11145 
0 854 23331 
0 854 3041 
0 854 33185 
0 854 671 
0 854 20803 
0 854 13400 
0 854 7138 
0 854 5167 
0 854 20316 
0 854 3315 
0 854 3343 
0 854 16742 
0 854 35140 
0 854 7152 
0 854 25208 
0 854 19371 
0 854 27873 
0 854 7981 
0 854 27238 
0 854 18550 
0 854 22359 
0 854 18935 
0 854 26291 
0 854 20964 
0 854 18818 
0 854 20042 
0 854 26373 
0 854 27972 
0 854 33701 
0 854 12773 
0 854 21629 
0 854 6052 
0 854 24185 
0 854 7911 
0 854 26316 
0 854 11727 
0 854 10173 
0 854 3963 
0 854 28163 
0 854 15241 
0 854 27176 
0 854 12376 
0 854 16264 
0 854 21143 
0 854 26267 
0 854 23549 
0 854 25405 
0 854 25466 
0 854 24426 
0 854 19329 
0 854 24524 
0 854 24447 
0 854 17668 
0 854 6564 
0 854 13669 
0 854 25269 
0 854 23704 
0 854 24620 
0 854 32220 
0 854 21496 
0 854 24505 
0 854 24888 
0 854 1363 
0 854 9129 
0 854 17363 
0 854 29747 
0 854 18056 
0 854 17894 
0 854 16586 
0 854 1274 
0 854 7943 
0 854 24199 
0 854 6883 
0 854 13180 
0 854 22664 
0 854 7734 
0 854 11802 
0 854 9331 
0 854 9655 
0 854 26499 
0 854 21108 
0 854 20173 
0 854 8268 
0 854 9915 
0 854 20527 
0 854 16329 
0 854 19857 
0 854 22279 
0 854 16036 
0 854 23803 
0 854 20622 
0 854 10910 
0 854 18535 
0 854 26204 
0 854 952 
0 854 9347 
0 854 12235 
0 854 8522 
0 854 17788 
0 854 24685 
0 854 4813 
0 854 25605 
0 854 12647 
0 854 13127 
0 854 1477 
0 854 25097 
0 854 6704 
0 854 25475 
0 854 11129 
0 854 25166 
0 854 13228 
0 853 11111 
0 853 8893 
0 853 27076 
0 853 1123 
0 853 5160 
0 853 8441 
0 853 10134 
0 853 9352 
0 853 7398 
0 853 11350 
0 853 6437 
0 853 1238 
0 853 26039 
0 853 1537 
0 853 35263 
0 853 14847 
0 853 6708 
0 853 9056 
0 853 28995 
0 853 11228 
0 853 5267 
0 851 3600 
0 851 7671 
0 851 4147 
0 851 5439 
0 851 965 
0 851 2920 
0 851 7638 
0 851 2538 
0 851 3085 
0 851 530 
0 850 3334 
0 850 5110 
0 850 17973 
0 850 22757 
0 829 3334 
0 852 9923 
0 852 2189 
0 852 13557 
0 852 8023 
0 852 12096 
0 852 6681 
0 852 375 
0 852 9726 
0 852 7642 
0 852 5331 
0 852 16305 
0 852 1459 
0 852 2915 
0 852 1651 
0 852 13104 
0 852 3552 
0 852 2301 
0 852 34346 
0 852 10447 
0 852 5113 
0 852 8625 
0 852 28632 
0 852 34359 
0 852 17808 
0 852 24419 
0 852 5568 
0 852 441 
0 852 6506 
0 852 14593 
0 852 6000 
0 852 7657 
0 852 8991 
0 852 20269 
0 852 16255 
0 852 12378 
0 852 13980 
0 852 10524 
0 852 10662 
0 852 24626 
0 852 32112 
0 852 1563 
0 852 13793 
0 852 19629 
0 852 20353 
0 852 14433 
0 852 6008 
0 852 23454 
0 852 10244 
0 852 37648 
0 852 20985 
0 852 28290 
0 852 17146 
0 852 38371 
0 852 40042 
0 852 11321 
0 852 28028 
0 852 41258 
0 819 1445 
0 819 5325 
0 819 5969 
0 819 5158 
0 819 231 
0 819 6974 
0 819 3282 
0 819 16877 
0 819 679 
0 819 15449 
0 819 6402 
0 819 8254 
0 819 4326 
0 819 5420 
0 819 12755 
0 819 1603 
0 819 9720 
0 819 2319 
0 819 723 
0 819 28029 
0 819 2470 
0 819 1191 
0 819 8862 
0 819 2935 
0 819 13076 
0 819 287 
0 819 8257 
0 819 17330 
0 855 2927 
0 894 25311 
0 894 38151 
0 894 13900 
0 894 40447 
0 894 24546 
0 894 19810 
0 894 29405 
0 894 34178 
0 894 28961 
0 894 16149 
0 894 31139 
0 894 41248 
0 894 34195 
0 894 33 
0 894 30196 
0 894 33070 
0 894 23317 
0 894 27289 
0 894 26259 
0 894 243 
0 894 36985 
0 894 6810 
0 894 40780 
0 894 3639 
0 894 16406 
0 894 36811 
0 894 22284 
0 894 3471 
0 894 23245 
0 894 31862 
0 894 9656 
0 894 41746 
0 894 6960 
0 894 27009 
0 894 3326 
0 894 15599 
0 894 15081 
0 894 7623 
0 894 33092 
0 894 8349 
0 894 30311 
0 894 35816 
0 894 30872 
0 894 18997 
0 894 414 
0 894 28402 
0 894 40149 
0 894 4720 
0 894 38840 
0 894 1846 
0 894 38899 
0 894 9106 
0 894 29847 
0 894 7934 
0 894 39078 
0 894 37749 
0 894 27687 
0 894 32547 
0 852 13343 
0 852 13157 
0 852 10609 
0 852 19684 
0 852 2512 
0 852 2685 
0 852 2500 
0 852 3060 
0 849 29405 
0 849 33 
0 849 243 
0 849 7623 
0 849 1846 
0 819 13897 
0 819 5489 
0 819 6161 
0 819 3736 
0 819 13007 
0 819 7552 
0 819 23636 
0 819 4003 
0 819 3910 
0 809 1161 
0 855 17559 
0 855 36290 
0 855 37450 
0 855 19664 
0 855 15175 
0 855 25661 
0 855 7380 
0 855 27836 
0 855 6869 
0 855 6575 
0 855 33789 
0 855 30035 
0 855 20943 
0 855 15148 
0 855 36618 
0 855 27900 
0 855 25393 
0 855 40375 
0 855 38940 
0 855 37269 
0 855 26255 
0 855 35664 
0 855 27943 
0 855 39812 
0 855 37683 
0 855 12334 
0 855 35768 
0 855 9100 
0 855 38151 
0 855 1426 
0 855 9397 
0 855 39943 
0 854 13897 
0 854 5489 
0 854 6161 
0 854 3736 
0 854 13007 
0 854 7552 
0 854 23636 
0 854 4003 
0 854 3910 
0 854 29376 
0 854 27235 
0 854 9827 
0 936 25036 
0 936 4527 
0 934 18518 
0 934 41175 
0 932 27521 
0 782 25079 
0 782 38965 
0 780 27274 
0 780 24136 
0 778 16434 
0 778 17863 
0 778 33943 
0 778 12113 
0 778 27453 
0 778 33445 
0 778 30746 
0 778 32257 
0 778 10234 
0 778 37792 
0 778 12590 
0 778 889 
0 778 8863 
0 778 32481 
0 778 34800 
0 778 35334 
0 778 35021 
0 778 17039 
0 778 30093 
0 778 32272 
0 778 19752 
0 778 13469 
0 778 7356 
0 778 32455 
0 778 33551 
0 778 28674 
0 778 28111 
0 778 30327 
0 778 28003 
0 778 12757 
0 778 40160 
0 778 13660 
0 778 30303 
0 778 36743 
0 778 35718 
0 778 10252 
0 778 39619 
0 778 33658 
0 778 14284 
0 778 34044 
0 778 24583 
0 778 30860 
0 778 38909 
0 778 31473 
0 778 31553 
0 778 35342 
0 778 31732 
0 778 21452 
0 778 31767 
0 778 32565 
0 778 22326 
0 778 31419 
0 778 6178 
0 778 22632 
0 778 26935 
0 778 24164 
0 778 32199 
0 778 23643 
0 778 6040 
0 778 6030 
0 778 33118 
0 776 24908 
0 776 25158 
0 776 6433 
0 776 9954 
0 776 13665 
0 776 2905 
0 776 16741 
0 776 15323 
0 776 6772 
0 776 5117 
0 776 236 
0 776 7550 
0 776 1519 
0 776 3586 
0 776 16991 
0 776 15304 
0 776 3583 
0 776 4682 
0 776 23783 
0 776 13200 
0 776 9719 
0 776 12148 
0 776 25519 
0 776 8444 
0 776 20024 
0 776 3417 
0 776 21069 
0 776 17910 
0 776 11306 
0 776 4648 
0 776 9409 
0 776 15368 
0 776 22605 
0 776 21732 
0 776 15128 
0 776 28212 
0 776 25739 
0 776 24604 
0 776 2344 
0 776 5433 
0 776 26142 
0 776 23969 
0 776 6127 
0 776 7956 
0 776 14720 
0 776 22061 
0 776 21894 
0 776 22834 
0 776 20257 
0 776 9561 
0 776 21873 
0 776 16666 
0 776 19833 
0 776 18182 
0 776 3243 
0 776 17841 
0 776 22174 
0 776 11117 
0 776 928 
0 776 6789 
0 776 23657 
0 776 12175 
0 776 10950 
0 776 18087 
0 776 16894 
0 776 3385 
0 776 15120 
0 776 3618 
0 776 15597 
0 776 11898 
0 776 14070 
0 776 11167 
0 776 14299 
0 776 11558 
0 776 11102 
0 776 15648 
0 776 16275 
0 776 13753 
0 776 17587 
0 776 14412 
0 776 955 
0 776 15243 
0 776 14024 
0 776 16172 
0 776 2375 
0 776 13802 
0 776 5426 
0 776 4072 
0 776 16300 
0 776 3921 
0 776 11187 
0 776 13809 
0 776 10399 
0 776 5241 
0 776 13933 
0 776 15749 
0 776 10479 
0 776 13090 
0 776 2419 
0 776 11931 
0 776 11028 
0 776 10288 
0 776 6804 
0 776 8366 
0 935 30721 
0 935 28068 
0 935 26868 
0 935 20357 
0 935 37454 
0 935 32502 
0 935 35475 
0 935 32004 
0 935 28822 
0 927 41857 
0 779 33838 
0 779 35372 
0 779 35282 
0 779 40128 
0 779 15289 
0 779 16163 
0 779 31963 
0 779 7478 
0 779 21406 
0 779 39207 
0 779 12292 
0 779 21079 
0 779 14545 
0 779 38506 
0 777 6279 
0 777 26333 
0 777 28594 
0 777 22550 
0 777 5916 
0 777 32920 
0 777 27984 
0 777 27464 
0 777 29235 
0 777 28013 
0 777 26980 
0 777 16656 
0 777 29058 
0 777 27864 
0 777 28764 
0 777 24605 
0 777 24107 
0 777 22093 
0 777 22306 
0 777 23945 
0 777 12289 
0 777 25638 
0 777 28972 
0 777 10842 
0 777 28058 
0 777 21770 
0 777 16253 
0 777 24409 
0 777 28523 
0 777 6453 
0 777 160 
0 777 15476 
0 777 19462 
0 777 26904 
0 777 8922 
0 777 13785 
0 777 30838 
0 777 12427 
0 777 18003 
0 777 16660 
0 777 7277 
0 777 2496 
0 777 12915 
0 777 13972 
0 777 19474 
0 777 12760 
0 777 7809 
0 777 8329 
0 777 5300 
0 777 2687 
0 777 7732 
0 777 4997 
0 777 21847 
0 777 16455 
0 777 4872 
0 777 2179 
0 777 21439 
0 777 18098 
0 777 15833 
0 777 2792 
0 777 12167 
0 775 12987 
0 775 18823 
0 775 9158 
0 775 14285 
0 775 20208 
0 775 15123 
0 775 19974 
0 775 17220 
0 775 23047 
0 775 19103 
0 775 13078 
0 775 14123 
0 775 19447 
0 775 16457 
0 775 7795 
0 775 24450 
0 775 1388 
0 775 16867 
0 775 2662 
0 775 19190 
0 775 9472 
0 775 7513 
0 775 12573 
0 775 11941 
0 775 4591 
0 775 1766 
0 775 13182 
0 775 1202 
0 775 12984 
0 775 4268 
0 775 3710 
0 775 9181 
0 775 7791 
0 775 3973 
0 775 16448 
0 775 5011 
0 775 16355 
0 775 15264 
0 775 11609 
0 775 13177 
0 775 6765 
0 775 3649 
0 775 17093 
0 775 10790 
0 775 2166 
0 775 14700 
0 775 12850 
0 775 8260 
0 775 8259 
0 775 622 
0 775 2078 
0 775 4954 
0 775 15524 
0 775 369 
0 775 1775 
0 775 11872 
0 775 303 
0 775 3121 
0 775 18484 
0 775 13074 
0 775 4442 
0 775 18247 
0 775 15553 
0 775 10847 
0 775 13276 
0 775 7379 
0 775 1182 
0 775 14248 
0 774 22413 
0 774 4311 
0 774 21856 
0 774 3648 
1 2649 28901 
1 2712 36281 
1 2712 30444 
1 2712 27617 
1 2712 42409 
1 2681 1327 
1 2681 36297 
1 2681 8890 
1 2681 16185 
1 2681 23408 
1 115 33871 
1 84 36746 
1 84 22644 
1 2656 21015 
1 2725 42147 
1 2678 691 
1 2678 27617 
1 2714 36281 
1 85 36746 
1 85 22644 
1 86 36746 
1 2713 42809 
1 2700 15428 
1 80 40476 
1 81 40476 
1 81 14385 
1 2695 36281 
1 2695 30444 
1 2701 42147 
1 82 40476 
1 82 14385 
1 2696 36281 
1 2694 27617 
1 2694 42409 
1 2694 42809 
1 2669 3974 
1 73 34336 
1 2661 3974 
1 76 24293 
1 2639 3974 
1 2702 15428 
1 2716 10898 
1 77 38173 
1 77 3974 
1 2703 15428 
1 2673 21015 
1 2670 28901 
1 78 38173 
1 2648 28901 
1 116 33871 
1 91 31319 
1 92 31319 
1 74 22563 
1 74 11550 
1 126 15428 
1 2664 22563 
1 2647 28901 
1 2665 22563 
1 2680 2681 
1 2680 6189 
1 2680 2 
1 2680 10651 
1 2680 18486 
1 2680 20687 
1 2680 9696 
1 2677 8851 
1 2677 35058 
1 2677 628 
1 2677 9437 
1 2677 35629 
1 2677 17599 
1 2677 11407 
1 2677 21756 
1 2677 3497 
1 2677 26166 
1 2677 39860 
1 2677 451 
1 2691 2681 
1 2691 2899 
1 2691 2 
1 2691 10651 
1 2691 18486 
1 2691 20687 
1 2691 1021 
1 2691 7181 
1 2691 9696 
1 2691 1327 
1 2691 36297 
1 2691 468 
1 2691 8890 
1 2691 6992 
1 2691 16185 
1 2691 23408 
1 2691 8851 
1 2691 2453 
1 2691 5998 
1 2691 26226 
1 2691 2974 
1 2691 8210 
1 2691 14576 
1 2691 4797 
1 2691 29978 
1 2691 29174 
1 2691 6462 
1 2691 30037 
1 2691 26462 
1 2691 25911 
1 2691 17854 
1 2691 2264 
1 2691 22654 
1 2691 13159 
1 2691 35058 
1 2691 5400 
1 2691 21650 
1 2691 25212 
1 2691 3083 
1 2691 12629 
1 2691 2007 
1 2691 3904 
1 2691 52 
1 2691 20083 
1 2691 7247 
1 2691 953 
1 2691 12882 
1 2691 31722 
1 2691 1744 
1 2691 9437 
1 2691 32362 
1 2691 26504 
1 2691 3178 
1 2691 8042 
1 2691 53 
1 2691 22839 
1 2691 34667 
1 2691 34256 
1 2691 11354 
1 2691 25128 
1 2691 15932 
1 2691 18206 
1 2691 5266 
1 2691 3880 
1 2691 5029 
1 2691 808 
1 2691 1952 
1 2691 23951 
1 2691 959 
1 2691 9406 
1 2691 37329 
1 2691 4575 
1 2691 1565 
1 2691 25758 
1 2691 23052 
1 2691 14872 
1 2691 731 
1 2691 31960 
1 2691 36448 
1 2691 4529 
1 2691 26910 
1 2691 9844 
1 2691 17591 
1 2691 4118 
1 2691 1879 
1 2691 586 
1 2691 30578 
1 2691 18863 
1 2691 1130 
1 2691 8318 
1 2691 28568 
1 2691 1341 
1 2691 14430 
1 2691 3970 
1 2691 27854 
1 2691 13393 
1 2691 19144 
1 2691 9643 
1 2691 5516 
1 2691 41272 
1 2691 39321 
1 2691 39754 
1 2691 15433 
1 2691 13042 
1 2691 21512 
1 2691 30914 
1 2691 25358 
1 2691 23262 
1 2709 2681 
1 2709 2899 
1 2709 6189 
1 2709 2 
1 2709 8413 
1 2709 10651 
1 2709 18486 
1 2709 4595 
1 2709 20687 
1 2709 1021 
1 2709 1022 
1 2709 9696 
1 2709 23053 
1 2709 1327 
1 2709 36297 
1 2709 468 
1 2709 8890 
1 2709 6992 
1 2709 16185 
1 2709 23408 
1 2709 8851 
1 2709 30878 
1 2709 26226 
1 2709 8210 
1 2709 12007 
1 2709 24205 
1 2709 4797 
1 2709 6067 
1 2709 29174 
1 2709 24798 
1 2709 27425 
1 2709 26462 
1 2709 25911 
1 2709 17854 
1 2709 2264 
1 2709 3844 
1 2709 22654 
1 2709 13159 
1 2709 35058 
1 2709 628 
1 2709 3083 
1 2709 12629 
1 2709 7680 
1 2709 21973 
1 2709 23260 
1 2709 19353 
1 2709 12882 
1 2709 31722 
1 2709 770 
1 2709 9437 
1 2709 6793 
1 2709 3178 
1 2709 8042 
1 2709 53 
1 2709 22839 
1 2709 34667 
1 2709 34256 
1 2709 11354 
1 2709 25128 
1 2709 15932 
1 2709 18206 
1 2709 5266 
1 2709 3880 
1 2709 35629 
1 2709 2211 
1 2709 21874 
1 2709 23951 
1 2709 959 
1 2709 9406 
1 2709 37329 
1 2709 4575 
1 2709 1565 
1 2709 25758 
1 2709 17599 
1 2709 11407 
1 2709 31960 
1 2709 36448 
1 2709 4529 
1 2709 26910 
1 2709 9844 
1 2709 17591 
1 2709 4118 
1 2709 1879 
1 2709 21756 
1 2709 30578 
1 2709 1534 
1 2709 1130 
1 2709 8318 
1 2709 28568 
1 2709 10487 
1 2709 3497 
1 2709 27854 
1 2709 13393 
1 2709 19144 
1 2709 9643 
1 2709 20503 
1 2709 26166 
1 2709 39860 
1 2709 39321 
1 2709 39754 
1 2709 15433 
1 2709 25542 
1 2709 451 
1 2709 30914 
1 2709 27623 
1 2709 7391 
1 2709 2882 
1 2682 2681 
1 2682 19377 
1 2682 6642 
1 2682 68 
1 2682 3995 
1 2682 34777 
1 2690 35629 
1 2690 17599 
1 2690 11407 
1 2690 21756 
1 2690 10487 
1 2690 3497 
1 2690 20503 
1 2690 26166 
1 2690 39860 
1 2690 25542 
1 2690 451 
1 2690 27623 
1 2690 7391 
1 2690 39073 
1 2690 2882 
1 2690 35221 
1 2676 26166 
1 2676 39860 
1 2676 451 
1 2683 6642 
1 2683 68 
1 2683 3995 
1 2683 34777 
1 2692 2681 
1 2692 2899 
1 2692 2453 
1 2692 5998 
1 2692 5400 
1 2692 1160 
1 2692 5029 
1 2692 14872 
1 2692 7087 
1 2692 1341 
1 2692 3719 
1 2693 2899 
1 2693 5998 
1 2693 5400 
1 2693 1160 
1 2693 1609 
1 2693 5029 
1 2693 11722 
1 2693 7087 
1 2693 3719 
1 2693 26086 
1 2706 19377 
1 2706 6642 
1 2706 68 
1 2706 7259 
1 2706 19191 
1 2706 5248 
1 2706 2620 
1 2706 3995 
1 2706 6788 
1 2706 22293 
1 2706 9248 
1 2706 34987 
1 2706 34777 
1 2706 14856 
1 2706 5767 
1 2706 18050 
1 2706 31274 
1 2706 33849 
1 2706 13700 
1 2706 6383 
1 2706 958 
1 2706 4127 
1 2706 10957 
1 2706 10379 
1 2706 33708 
1 2706 36998 
1 2706 469 
1 2706 39338 
1 2706 23451 
1 2706 42145 
1 2706 17481 
1 2706 19232 
1 2706 42201 
1 2708 2899 
1 2708 5998 
1 2708 2620 
1 2708 5400 
1 2708 1160 
1 2708 19822 
1 2708 1609 
1 2708 310 
1 2708 11722 
1 2708 7087 
1 2708 16131 
1 2708 26086 
1 2710 5998 
1 2710 5400 
1 2710 26621 
1 2710 1053 
1 2710 19437 
1 2710 5029 
1 2710 6182 
1 2710 6628 
1 2710 586 
1 2710 1341 
1 2710 3970 
1 2710 5516 
1 2710 41272 
1 2710 13042 
1 2710 21512 
1 2710 25358 
1 2710 23262 
1 2710 39073 
1 2710 35221 
1 2707 2620 
1 2707 34987 
1 2707 310 
1 2707 4127 
1 2707 469 
1 2707 23451 
1 2707 16131 
1 2707 42201 
1 2711 2681 
1 2711 2899 
1 2711 5998 
1 2711 30878 
1 2711 26621 
1 2711 1160 
1 2711 19437 
1 2711 1609 
1 2711 5029 
1 2711 6182 
1 2711 6628 
1 2711 11722 
1 2711 7087 
1 2711 1341 
1 2711 3719 
1 2711 26086 
1 2720 2681 
1 2720 19377 
1 2720 2899 
1 2720 6642 
1 2720 68 
1 2720 7259 
1 2720 19191 
1 2720 5248 
1 2720 2620 
1 2720 3995 
1 2720 6788 
1 2720 22293 
1 2720 9248 
1 2720 34987 
1 2720 34777 
1 2720 14856 
1 2720 5767 
1 2720 18050 
1 2720 19822 
1 2720 31274 
1 2720 33849 
1 2720 13700 
1 2720 6383 
1 2720 958 
1 2720 310 
1 2720 4127 
1 2720 10957 
1 2720 10379 
1 2720 33708 
1 2720 36998 
1 2720 469 
1 2720 39338 
1 2720 23451 
1 2720 16131 
1 2720 42145 
1 2720 17481 
1 2720 19232 
1 2720 42201 
1 2718 2681 
1 2718 2899 
1 2718 5998 
1 2718 26621 
1 2718 1160 
1 2718 19822 
1 2718 1609 
1 2718 11722 
1 2718 7087 
1 2718 26086 
1 2719 2681 
1 2719 2899 
1 2719 5998 
1 2719 26621 
1 2719 1160 
1 2719 19822 
1 2719 1609 
1 2719 310 
1 2719 11722 
1 2719 16131 
1 65 24281 
1 64 24281 
1 100 27421 
1 66 13545 
1 103 38645 
1 131 13545 
1 2705 10898 
1 96 39796 
1 2704 10898 
1 2697 10898 
1 97 39796 
1 97 1132 
1 135 6107 
1 2721 19232 
1 2721 42201 
1 136 6107 
1 138 37373 
1 139 37373 
1 2722 42201 
1 2722 10898 
1 71 36603 
1 71 7308 
1 125 15428 
1 114 33871 
1 94 21313 
1 75 11550 
0 948 25452 
0 946 11240 
0 944 29132 
0 774 15805 
0 774 35039 
0 774 20449 
0 774 16641 
0 774 11075 
0 774 38168 
0 774 26369 
0 774 14975 
0 774 8200 
0 774 25626 
0 774 10284 
0 774 35504 
0 774 26789 
0 774 16870 
0 774 25569 
0 774 21607 
0 774 20547 
0 774 25043 
0 774 27333 
0 774 19393 
0 774 11818 
0 774 10225 
0 774 18241 
0 774 32147 
0 774 20224 
0 774 14093 
0 774 32634 
0 774 22352 
0 774 26257 
0 774 16800 
0 774 25124 
0 774 24914 
0 774 24350 
0 774 10430 
0 774 6914 
0 774 2402 
0 774 26844 
0 774 26484 
0 774 32204 
0 774 5601 
0 774 24114 
0 774 13755 
0 774 16341 
0 774 25196 
0 774 24575 
0 774 14081 
0 774 11353 
0 774 23413 
0 774 23492 
0 774 25349 
0 774 26905 
0 774 17174 
0 774 10500 
0 774 25185 
0 774 24652 
0 774 12156 
0 774 2352 
0 774 22322 
0 774 25799 
0 774 24362 
0 774 21352 
0 774 25754 
0 774 23300 
0 774 22346 
0 774 27710 
0 774 16096 
0 774 15340 
0 774 18864 
0 774 27604 
0 774 22629 
0 774 24489 
0 774 24843 
0 774 30493 
0 774 22321 
0 774 27695 
0 774 3842 
0 774 23213 
0 774 28135 
0 774 21506 
0 774 21955 
0 774 16252 
0 774 29768 
0 774 17081 
0 774 30013 
0 774 20050 
0 774 9033 
0 774 11449 
0 774 19272 
0 774 18802 
0 774 3185 
0 774 18691 
0 774 15704 
0 774 21363 
0 774 4627 
0 774 3892 
0 774 9821 
0 774 20973 
0 774 8267 
0 774 18217 
0 774 21939 
0 774 17950 
0 772 40593 
0 772 39012 
0 772 40380 
0 772 40221 
0 772 5161 
0 772 39302 
0 772 36769 
0 772 20118 
0 772 39700 
0 772 40472 
0 772 38180 
0 772 38868 
0 772 35158 
0 772 28610 
0 772 9051 
0 772 38184 
0 772 11757 
0 772 35432 
0 772 29871 
0 772 38598 
0 772 24611 
0 772 11629 
0 770 38465 
0 770 7270 
0 953 29564 
0 951 27280 
0 945 35062 
0 773 16130 
0 773 27351 
0 773 38827 
0 773 2696 
0 773 2541 
0 773 8574 
0 773 28711 
0 773 39124 
0 773 18268 
0 773 21548 
0 773 14396 
0 773 39051 
0 773 26160 
0 773 22588 
0 773 8411 
0 773 18587 
0 773 23431 
0 773 18374 
0 773 24050 
0 773 37803 
0 773 20655 
0 773 19116 
0 773 16949 
0 773 32832 
0 773 30618 
0 773 37711 
0 773 27928 
0 773 35621 
0 773 33623 
0 773 14100 
0 773 27758 
0 773 32901 
0 773 27561 
0 773 33343 
0 773 4920 
0 773 26784 
0 773 19842 
0 773 32981 
0 773 26920 
0 773 28790 
0 773 17384 
0 773 33890 
0 773 33005 
0 773 28526 