ITEM: TIMESTEP
9000000
ITEM: NUMBER OF ENTRIES
4987
ITEM: BOX BOUNDS ff ff ff
-0.01 0.45
-0.15 0.15
-0.08 0.1
ITEM: ENTRIES c_pwc[1] c_pwc[2] c_pwc[3] 
0 928 25424 
0 922 28341 
0 782 34960 
0 780 12659 
0 780 33044 
0 780 33338 
0 780 30137 
0 778 3380 
0 778 22865 
0 778 14872 
0 778 30413 
0 778 5887 
0 778 30259 
0 778 26895 
0 778 27025 
0 778 25247 
0 778 12129 
0 778 31286 
0 778 12635 
0 778 22195 
0 778 2175 
0 778 830 
0 778 24211 
0 778 12295 
0 778 14847 
0 778 28047 
0 778 5441 
0 778 19279 
0 778 20860 
0 778 23861 
0 778 23984 
0 778 25932 
0 778 29855 
0 778 5450 
0 778 14729 
0 778 15733 
0 778 23961 
0 778 3885 
0 778 2775 
0 778 23676 
0 778 30373 
0 778 20038 
0 778 25677 
0 778 27310 
0 778 159 
0 778 22052 
0 778 29249 
0 778 34010 
0 778 32455 
0 778 11991 
0 778 25689 
0 778 31044 
0 778 4531 
0 778 34733 
0 778 31563 
0 778 30155 
0 778 34198 
0 778 31146 
0 778 18320 
0 778 21928 
0 778 33249 
0 778 22506 
0 778 30003 
0 778 31562 
0 778 31177 
0 778 25874 
0 778 5290 
0 778 30296 
0 778 11050 
0 778 34186 
0 778 21246 
0 778 4045 
0 778 31801 
0 778 26732 
0 778 1676 
0 778 33607 
0 778 34947 
0 778 29482 
0 778 28887 
0 776 19273 
0 776 11091 
0 776 715 
0 776 5603 
0 776 1820 
0 776 703 
0 776 3886 
0 776 4109 
0 776 5663 
0 776 12456 
0 776 6873 
0 776 1086 
0 776 665 
0 776 2203 
0 776 2717 
0 776 2948 
0 776 4998 
0 776 19448 
0 776 18997 
0 776 540 
0 776 4359 
0 776 2136 
0 776 3611 
0 776 6925 
0 776 2468 
0 776 3788 
0 776 17094 
0 776 1696 
0 776 3608 
0 776 3414 
0 776 3528 
0 776 4080 
0 776 2233 
0 776 2021 
0 776 8960 
0 776 3508 
0 776 9477 
0 776 3753 
0 776 3305 
0 776 3291 
0 776 4721 
0 776 1339 
0 776 2449 
0 776 79 
0 776 16526 
0 776 6753 
0 776 4199 
0 776 3448 
0 776 21706 
0 776 7592 
0 776 20199 
0 776 937 
0 776 8641 
0 776 10868 
0 776 7757 
0 776 9204 
0 776 23153 
0 776 10520 
0 776 12471 
0 776 3079 
0 776 882 
0 776 12280 
0 776 7929 
0 776 3352 
0 776 20852 
0 776 22627 
0 776 15709 
0 776 5710 
0 776 631 
0 776 681 
0 776 93 
0 776 8099 
0 776 15575 
0 776 9672 
0 776 20495 
0 776 11194 
0 776 2139 
0 776 10369 
0 776 16323 
0 776 26242 
0 776 22090 
0 776 22590 
0 776 6640 
0 776 8941 
0 776 8936 
0 776 11418 
0 776 6528 
0 776 22221 
0 776 10692 
0 776 14351 
0 776 2363 
0 776 5985 
0 776 21945 
0 776 21162 
0 776 1196 
0 776 3425 
0 776 10608 
0 776 906 
0 776 18912 
0 776 21917 
0 776 12396 
0 776 17101 
0 776 18179 
0 776 9388 
0 776 210 
0 776 7690 
0 776 25334 
0 776 189 
0 776 12529 
0 776 14015 
0 776 7239 
0 776 1551 
0 776 12458 
0 776 19641 
0 776 12967 
0 776 4672 
0 776 8492 
0 776 2411 
0 776 1974 
0 776 6975 
0 776 11948 
0 776 20469 
0 776 7602 
0 776 12679 
0 776 9700 
0 776 8342 
0 776 1879 
0 779 33095 
0 777 6415 
0 777 19032 
0 777 22795 
0 777 3391 
0 777 22837 
0 777 21769 
0 777 27089 
0 777 7149 
0 777 16659 
0 777 18926 
0 777 25499 
0 777 15644 
0 777 20849 
0 777 13659 
0 777 28821 
0 777 9908 
0 777 29456 
0 777 22015 
0 777 33018 
0 777 16619 
0 775 1139 
0 775 3441 
0 775 6318 
0 775 178 
0 775 12751 
0 775 5078 
0 775 11256 
0 775 22 
0 775 9335 
0 775 15459 
0 775 905 
0 775 16372 
0 775 16658 
0 775 6265 
0 775 456 
0 775 15564 
0 775 7759 
0 775 430 
0 839 14493 
0 838 24318 
0 838 11652 
0 838 14872 
0 838 26895 
0 832 19273 
0 832 11091 
0 832 715 
0 774 6176 
0 774 6699 
0 774 14493 
0 774 977 
0 774 3436 
0 774 8093 
0 774 8359 
0 774 616 
0 774 13184 
0 774 4108 
0 774 12507 
0 774 5826 
0 774 11526 
0 774 589 
0 774 15591 
0 774 13508 
0 774 7354 
0 774 11270 
0 774 8377 
0 774 3217 
0 774 5971 
0 774 17482 
0 774 8868 
0 774 7035 
0 774 19919 
0 774 21182 
0 774 14079 
0 774 925 
0 774 15523 
0 774 16924 
0 774 24568 
0 774 12707 
0 774 16350 
0 774 8358 
0 881 32079 
0 774 8382 
0 774 15467 
0 774 10055 
0 774 16873 
0 774 30625 
0 774 15387 
0 774 17557 
0 774 15913 
0 774 7863 
0 774 20798 
0 774 33672 
0 774 17641 
0 774 3666 
0 774 528 
0 774 4121 
0 774 15431 
0 774 11053 
0 774 30928 
0 774 13616 
0 774 16489 
0 774 787 
0 774 7189 
0 774 23504 
0 774 12946 
0 774 24641 
0 774 23747 
0 774 23649 
0 774 1903 
0 774 7242 
0 774 14829 
0 774 23939 
0 774 15414 
0 774 12052 
0 774 9657 
0 774 18259 
0 774 24714 
0 774 27332 
0 774 21866 
0 774 23088 
0 774 11939 
0 774 3476 
0 774 10580 
0 884 328 
0 884 11054 
0 884 21516 
0 884 2720 
0 884 28295 
0 884 6693 
0 884 23379 
0 884 24773 
0 884 16272 
0 884 12056 
0 884 12827 
0 884 11116 
0 884 1168 
0 884 330 
0 884 11907 
0 884 5489 
0 884 25611 
0 884 4791 
0 884 21484 
0 884 3034 
0 884 3473 
0 884 8498 
0 884 23016 
0 884 3990 
0 884 4429 
0 884 8051 
0 884 13965 
0 884 2523 
0 884 2474 
0 884 1971 
0 884 31445 
0 884 10125 
0 884 4427 
0 884 7545 
0 884 13255 
0 884 17446 
0 884 10919 
0 884 5901 
0 884 15851 
0 884 23214 
0 884 482 
0 884 11299 
0 884 34910 
0 884 19334 
0 884 14734 
0 884 3845 
0 884 20971 
0 884 16062 
0 884 5480 
0 884 22389 
0 884 23613 
0 884 11881 
0 884 4435 
0 884 23353 
0 884 6378 
0 884 17340 
0 884 959 
0 884 3266 
0 884 4208 
0 884 998 
0 884 3188 
0 884 4029 
0 884 16461 
0 884 26 
0 884 4446 
0 884 22237 
0 884 2737 
0 884 24669 
0 884 2935 
0 884 18986 
0 884 14740 
0 884 13292 
0 884 8088 
0 884 18361 
0 884 807 
0 884 29763 
0 884 21905 
0 884 15304 
0 884 22151 
0 884 12953 
0 884 30187 
0 884 11191 
0 884 20269 
0 884 10855 
0 884 5183 
0 884 4206 
0 884 6167 
0 884 4265 
0 884 15887 
0 884 2953 
0 884 8715 
0 884 13646 
0 884 29358 
0 884 11133 
0 884 4805 
0 884 10248 
0 884 22122 
0 884 2309 
0 884 21544 
0 884 19912 
0 884 16198 
0 884 28415 
0 884 18100 
0 884 87 
0 884 12683 
0 884 17934 
0 884 7693 
0 884 15040 
0 884 15783 
0 884 23098 
0 884 16704 
0 884 3655 
0 884 7445 
0 884 8081 
0 884 23339 
0 884 10178 
0 884 16567 
0 884 21482 
0 884 22193 
0 884 30368 
0 884 18989 
0 884 3810 
0 884 14178 
0 884 31434 
0 884 31444 
0 884 1276 
0 884 180 
0 884 11626 
0 884 22885 
0 884 5313 
0 884 19231 
0 884 4428 
0 884 5457 
0 884 10140 
0 884 27351 
0 884 12786 
0 884 12138 
0 884 29681 
0 884 8010 
0 884 3961 
0 884 31571 
0 884 24506 
0 884 23057 
0 884 24689 
0 884 1167 
0 884 3821 
0 884 12801 
0 884 12168 
0 884 25862 
0 884 16102 
0 884 7489 
0 884 16746 
0 884 11894 
0 884 21993 
0 884 1011 
0 884 23516 
0 884 7260 
0 884 16064 
0 884 31378 
0 884 4666 
0 863 761 
0 854 21858 
0 854 2431 
0 854 22855 
0 854 9207 
0 854 9484 
0 854 13341 
0 854 1499 
0 854 1988 
0 854 24773 
0 854 33350 
0 854 28561 
0 854 35204 
0 854 29407 
0 854 12050 
0 854 7631 
0 854 22107 
0 854 6384 
0 854 9197 
0 854 28150 
0 854 20940 
0 854 25025 
0 854 6802 
0 854 5382 
0 854 4032 
0 854 23461 
0 854 27708 
0 854 16224 
0 854 120 
0 854 14531 
0 854 9326 
0 854 9452 
0 854 21196 
0 854 13586 
0 854 12056 
0 854 5564 
0 854 17075 
0 854 8005 
0 854 26441 
0 854 8955 
0 854 12892 
0 854 5077 
0 854 7954 
0 854 15333 
0 854 14919 
0 854 7342 
0 854 9200 
0 854 6138 
0 854 9863 
0 854 12877 
0 854 2040 
0 854 8054 
0 854 22857 
0 854 8679 
0 854 18959 
0 854 3824 
0 854 26495 
0 854 24342 
0 854 33887 
0 854 23075 
0 854 17133 
0 854 22302 
0 854 15744 
0 854 20672 
0 854 11434 
0 854 17458 
0 854 25227 
0 854 5493 
0 854 20412 
0 854 8141 
0 854 13895 
0 854 8991 
0 854 10430 
0 854 22729 
0 854 9305 
0 854 29029 
0 854 11389 
0 854 8927 
0 854 6868 
0 854 5933 
0 854 19205 
0 854 5230 
0 854 18633 
0 854 23809 
0 854 6682 
0 854 22660 
0 854 11423 
0 854 8298 
0 854 29997 
0 854 8654 
0 854 22608 
0 854 20468 
0 854 8265 
0 854 2179 
0 854 7054 
0 854 9911 
0 854 23056 
0 854 11289 
0 854 25883 
0 854 7013 
0 854 5027 
0 854 18280 
0 854 12546 
0 854 20111 
0 854 4638 
0 854 22279 
0 854 21606 
0 854 9509 
0 854 17560 
0 854 11590 
0 854 6258 
0 854 7604 
0 854 18652 
0 854 15347 
0 854 21086 
0 854 10546 
0 854 20196 
0 854 15216 
0 854 18383 
0 854 14593 
0 854 20501 
0 854 8522 
0 854 18946 
0 854 19612 
0 854 5569 
0 854 14166 
0 854 16181 
0 854 28053 
0 854 17550 
0 854 5677 
0 854 13682 
0 854 9872 
0 854 6917 
0 854 7935 
0 854 7079 
0 854 4964 
0 854 10571 
0 854 14360 
0 854 7371 
0 854 7050 
0 854 2144 
0 854 12277 
0 854 14219 
0 854 5709 
0 854 4970 
0 854 15026 
0 854 7941 
0 854 6083 
0 854 4963 
0 854 12827 
0 854 11723 
0 854 12964 
0 854 7380 
0 854 5988 
0 854 14092 
0 850 328 
0 850 11054 
0 850 21516 
0 850 2720 
0 850 11116 
0 850 1168 
0 850 330 
0 850 2474 
0 850 1971 
0 850 23214 
0 850 482 
0 850 11299 
0 850 959 
0 850 3266 
0 850 4208 
0 850 998 
0 850 3188 
0 850 4029 
0 850 562 
0 850 26 
0 850 566 
0 850 27 
0 850 310 
0 850 8088 
0 850 18361 
0 850 807 
0 850 7283 
0 850 2344 
0 850 6167 
0 850 4265 
0 850 15887 
0 850 2953 
0 850 3917 
0 850 24961 
0 850 4082 
0 850 21544 
0 850 19912 
0 850 2039 
0 850 2302 
0 850 13379 
0 850 8124 
0 850 11825 
0 850 10235 
0 850 7356 
0 850 33355 
0 850 8081 
0 850 2616 
0 850 9888 
0 850 18336 
0 850 6009 
0 850 14178 
0 850 9325 
0 850 22885 
0 850 23362 
0 850 2780 
0 850 3961 
0 850 17516 
0 850 16941 
0 850 4935 
0 850 24243 
0 850 13976 
0 850 16102 
0 850 6988 
0 850 19064 
0 850 19350 
0 850 1011 
0 850 200 
0 850 18527 
0 821 761 
0 885 562 
0 885 566 
0 885 27 
0 885 310 
0 885 7283 
0 885 2344 
0 885 3917 
0 885 24961 
0 885 4082 
0 885 2039 
0 885 2302 
0 885 13379 
0 885 8124 
0 885 11825 
0 885 10235 
0 885 7356 
0 885 33355 
0 885 2616 
0 885 9888 
0 885 18336 
0 885 6009 
0 885 9325 
0 885 23362 
0 885 2780 
0 885 17516 
0 885 16941 
0 885 4935 
0 885 24243 
0 885 13976 
0 885 6988 
0 885 19064 
0 885 19350 
0 885 200 
0 885 18527 
0 853 3695 
0 853 9601 
0 853 16239 
0 853 5314 
0 853 13161 
0 853 7068 
0 853 14508 
0 853 13271 
0 853 5458 
0 853 10964 
0 853 12220 
0 853 22140 
0 853 19966 
0 853 15807 
0 853 20642 
0 853 24805 
0 853 20311 
0 853 8504 
0 853 25591 
0 853 16064 
0 853 22799 
0 853 26908 
0 853 18042 
0 855 28993 
0 852 4414 
0 852 14243 
0 852 20267 
0 852 8595 
0 894 6933 
0 894 3301 
0 894 16763 
0 894 22028 
0 894 9699 
0 894 6007 
0 894 21501 
0 894 25224 
0 894 11272 
0 894 9703 
0 894 25316 
0 894 18082 
0 894 23312 
0 894 10359 
0 894 28208 
0 894 29117 
0 894 12911 
0 894 28153 
0 894 7612 
0 894 21376 
0 894 21411 
0 894 7609 
0 894 8512 
0 894 24030 
0 894 10728 
0 894 2032 
0 894 7682 
0 894 17935 
0 894 5467 
0 894 4773 
0 894 32108 
0 894 9422 
0 894 18922 
0 894 22430 
0 894 5945 
0 894 9004 
0 894 32740 
0 894 4430 
0 894 17657 
0 894 23251 
0 894 18548 
0 894 9116 
0 894 2113 
0 894 32830 
0 894 32476 
0 894 23216 
0 894 17253 
0 894 17724 
0 894 4949 
0 894 13121 
0 894 6454 
0 894 6756 
0 894 32608 
0 894 29844 
0 894 23922 
0 894 25177 
0 894 13219 
0 894 6364 
0 894 13034 
0 894 18773 
0 894 30782 
0 894 22593 
0 894 23648 
0 894 23843 
0 894 3876 
0 894 5555 
0 894 15661 
0 894 31393 
0 894 32267 
0 894 21 
0 894 24435 
0 894 16625 
0 894 33612 
0 894 29427 
0 894 14344 
0 894 22294 
0 894 33466 
0 894 32554 
0 894 21457 
0 894 11013 
0 894 9439 
0 894 8439 
0 894 22484 
0 894 14838 
0 894 9055 
0 894 22211 
0 894 22985 
0 894 9779 
0 894 28159 
0 894 10685 
0 894 21976 
0 894 18807 
0 894 27586 
0 894 15823 
0 894 19638 
0 894 19836 
0 894 27010 
0 866 12992 
0 866 13059 
0 866 4133 
0 866 23991 
0 866 4562 
0 866 4749 
0 855 2667 
0 855 14769 
0 855 24447 
0 855 9607 
0 855 3055 
0 855 32139 
0 855 8918 
0 855 16763 
0 855 23935 
0 855 23211 
0 855 17278 
0 855 22028 
0 855 19406 
0 855 8895 
0 855 21230 
0 855 312 
0 855 22959 
0 855 4992 
0 855 18866 
0 855 10214 
0 855 14691 
0 855 24570 
0 855 4328 
0 855 9699 
0 855 11288 
0 855 6801 
0 855 22613 
0 855 3156 
0 855 18139 
0 855 6938 
0 855 21501 
0 855 1295 
0 855 33735 
0 855 9486 
0 855 15386 
0 855 29197 
0 855 2922 
0 855 28246 
0 855 28915 
0 855 19719 
0 855 15047 
0 855 32007 
0 855 22149 
0 855 32633 
0 855 21735 
0 855 5263 
0 855 12415 
0 855 27581 
0 855 11272 
0 855 14666 
0 855 28501 
0 855 965 
0 855 22158 
0 855 5970 
0 855 13220 
0 855 31154 
0 855 21548 
0 855 5702 
0 855 17664 
0 855 24913 
0 855 9299 
0 855 16059 
0 855 24141 
0 855 19533 
0 855 12728 
0 855 19663 
0 849 3301 
0 819 6933 
0 962 31214 
0 960 28720 
0 895 21490 
0 895 12155 
0 895 24266 
0 895 15794 
0 895 16263 
0 895 19113 
0 895 19845 
0 895 19710 
0 895 33394 
0 895 30194 
0 895 24312 
0 895 20970 
0 895 31833 
0 895 30646 
0 895 22796 
0 895 14013 
0 895 85 
0 895 3887 
0 848 6933 
0 848 21490 
0 848 12155 
0 848 24266 
0 848 15794 
0 848 16263 
0 848 19710 
0 861 18388 
0 861 1020 
0 861 1184 
0 861 19018 
0 861 450 
0 861 6275 
0 861 10396 
0 861 2467 
0 861 4115 
0 861 6147 
0 861 417 
0 861 986 
0 861 1504 
0 861 4745 
0 857 5036 
0 857 442 
0 857 8021 
0 857 6561 
0 857 19550 
0 857 29537 
0 857 4537 
0 857 32699 
0 857 766 
0 857 13944 
0 857 17965 
0 854 15724 
0 854 31830 
0 822 18388 
0 822 1020 
0 822 1184 
0 822 19018 
0 822 450 
0 822 6275 
0 822 10396 
0 822 2467 
0 822 4115 
0 822 6147 
0 822 417 
0 822 986 
0 822 1504 
0 822 4745 
0 821 32699 
0 821 13944 
0 821 17965 
0 820 5036 
0 820 442 
0 820 8021 
0 820 6561 
0 820 19550 
0 820 29537 
0 820 4537 
0 820 766 
0 858 2244 
0 858 2495 
0 858 6837 
0 858 8971 
0 858 3698 
0 858 13382 
0 828 12992 
0 828 13059 
0 828 4133 
0 828 23991 
0 828 4562 
0 828 4749 
0 827 2244 
0 827 2495 
0 827 6837 
0 827 8971 
0 827 3698 
0 827 13382 
0 826 2244 
0 826 2495 
0 826 13382 
0 936 33196 
0 936 35583 
0 936 35238 
0 920 10657 
0 784 34067 
0 780 32696 
0 780 33404 
0 780 33022 
0 780 19675 
0 778 28302 
0 778 31985 
0 778 34085 
0 778 32340 
0 778 20303 
0 778 31008 
0 778 33445 
0 778 14823 
0 778 6352 
0 778 12667 
0 778 9796 
0 778 26297 
0 778 17603 
0 778 29509 
0 778 28633 
0 778 26752 
0 778 31928 
0 778 26413 
0 778 9499 
0 778 33043 
0 778 23354 
0 778 20295 
0 778 11 
0 778 27776 
0 778 27210 
0 778 22108 
0 778 8364 
0 778 17141 
0 778 31181 
0 778 26845 
0 778 9066 
0 778 26755 
0 778 20259 
0 778 27520 
0 778 25841 
0 778 26837 
0 778 1376 
0 778 31974 
0 778 9866 
0 778 29728 
0 778 28668 
0 778 3413 
0 778 4305 
0 778 17476 
0 778 25452 
0 778 29940 
0 778 31927 
0 778 12578 
0 778 25601 
0 778 4728 
0 778 29842 
0 778 28662 
0 778 29387 
0 778 6327 
0 778 23681 
0 778 16917 
0 778 14109 
0 778 27521 
0 776 11995 
0 776 27185 
0 776 15072 
0 776 4182 
0 776 23828 
0 776 1048 
0 776 14963 
0 776 18665 
0 776 8499 
0 776 3602 
0 776 1530 
0 776 12888 
0 776 24597 
0 776 10566 
0 776 23431 
0 776 6854 
0 776 11954 
0 776 2719 
0 776 24308 
0 776 3896 
0 776 13908 
0 776 2463 
0 776 17399 
0 776 11845 
0 776 25880 
0 776 12417 
0 776 15505 
0 776 9487 
0 776 17040 
0 776 21430 
0 776 2978 
0 776 22808 
0 776 3318 
0 776 13898 
0 776 2198 
0 776 5749 
0 776 122 
0 776 22254 
0 776 5779 
0 776 1580 
0 776 9090 
0 776 12777 
0 776 203 
0 776 354 
0 776 6831 
0 776 2125 
0 776 16005 
0 776 2236 
0 776 1451 
0 776 4880 
0 776 6463 
0 776 11816 
0 776 8982 
0 776 1210 
0 776 8623 
0 776 5298 
0 776 14189 
0 776 19346 
0 776 9339 
0 776 16639 
0 776 4025 
0 776 17946 
0 776 17472 
0 776 8433 
0 776 10111 
0 776 6373 
0 776 17242 
0 776 18488 
0 776 3398 
0 776 19787 
0 776 11863 
0 776 1310 
0 776 19263 
0 776 20739 
0 776 15809 
0 776 14890 
0 776 10622 
0 776 15488 
0 776 17042 
0 776 2314 
0 776 3114 
0 776 18576 
0 776 14545 
0 776 8976 
0 776 4125 
0 776 19012 
0 776 14889 
0 776 19808 
0 776 2642 
0 776 3047 
0 776 11280 
0 776 19559 
0 776 15831 
0 776 1096 
0 776 16116 
0 776 6715 
0 776 7923 
0 776 13237 
0 776 8282 
0 776 10307 
0 776 4247 
0 776 10234 
0 776 403 
0 776 4742 
0 776 11004 
0 776 8363 
0 776 11347 
0 776 16175 
0 776 8150 
0 776 6835 
0 776 732 
0 776 2085 
0 776 1703 
0 776 5810 
0 776 10110 
0 776 2746 
0 776 6056 
0 776 5631 
0 776 14240 
0 776 11165 
0 937 9741 
0 781 7029 
0 779 8594 
0 779 24975 
0 779 27746 
0 779 5296 
0 779 4387 
0 779 30649 
0 779 6867 
0 779 21700 
0 779 4661 
0 779 15350 
0 779 34489 
0 779 32841 
0 779 16218 
0 779 16378 
0 779 28316 
0 779 2260 
0 777 22874 
0 777 25847 
0 777 31321 
0 777 27958 
0 777 28802 
0 777 24658 
0 777 5219 
0 777 27557 
0 777 6924 
0 777 24936 
0 777 7439 
0 777 25849 
0 777 2803 
0 777 5039 
0 777 13340 
0 777 20811 
0 777 27877 
0 777 21336 
0 777 18920 
0 777 26681 
0 777 13808 
0 777 23699 
0 777 3214 
0 777 14709 
0 777 24582 
0 777 19647 
0 777 10822 
0 777 12358 
0 777 4194 
0 777 251 
0 777 25372 
0 777 19563 
0 777 24351 
0 777 22426 
0 777 9226 
0 777 20853 
0 777 4276 
0 777 13792 
0 777 19237 
0 777 9749 
0 777 12424 
0 777 19068 
0 777 4931 
0 777 7827 
0 777 19640 
0 777 24442 
0 777 23283 
0 777 7627 
0 777 20218 
0 777 13412 
0 777 11036 
0 777 9272 
0 777 396 
0 777 24984 
0 777 20031 
0 777 19993 
0 777 21675 
0 777 16766 
0 777 3921 
0 777 7042 
0 777 20201 
0 777 15895 
0 777 26260 
0 777 13937 
0 777 8020 
0 777 15747 
0 777 14532 
0 777 6632 
0 777 7003 
0 777 3497 
0 777 493 
0 777 8318 
0 777 10958 
0 777 12002 
0 777 2450 
0 777 4848 
0 777 3203 
0 777 21378 
0 777 13719 
0 777 9738 
0 775 16814 
0 775 17357 
0 775 7435 
0 775 20401 
0 775 9565 
0 775 299 
0 775 922 
0 775 8143 
0 775 24221 
0 775 11204 
0 775 8042 
0 775 10480 
0 775 13106 
0 775 3197 
0 775 8007 
0 775 16227 
0 775 7281 
0 775 2480 
0 775 4155 
0 775 3918 
0 775 16074 
0 775 9434 
0 775 9828 
0 775 7459 
0 775 18770 
0 775 2417 
0 775 14047 
0 775 1280 
0 775 7943 
0 775 14317 
0 775 10507 
0 775 17794 
0 775 5157 
0 775 11395 
0 775 6458 
0 775 12033 
0 775 11173 
0 775 9702 
0 775 4200 
0 775 11647 
0 775 8627 
0 775 6115 
0 775 7559 
0 775 7427 
0 775 8378 
0 775 3520 
0 775 7164 
0 775 1437 
0 775 13322 
0 775 42 
0 775 8038 
0 775 1859 
0 775 17170 
0 775 8151 
0 775 17331 
0 775 12660 
0 775 13507 
0 775 273 
0 775 12664 
0 775 12247 
0 775 16802 
0 775 6557 
0 775 10373 
0 775 9333 
0 775 10474 
0 775 9586 
0 775 11037 
0 775 14870 
0 775 558 
0 775 2072 
0 775 11782 
0 775 10379 
0 775 484 
0 775 8384 
0 775 12787 
0 775 10300 
0 774 6543 
0 774 19392 
0 774 24418 
0 774 14361 
0 774 17204 
1 900 13266 
0 946 34866 
0 774 584 
0 774 18267 
0 774 19467 
0 774 22880 
0 774 16513 
0 774 25901 
0 774 1754 
0 774 23724 
0 774 25543 
0 774 28792 
0 774 20118 
0 774 7911 
0 774 20171 
0 774 25166 
0 774 25531 
0 774 22098 
0 774 23947 
0 774 25100 
0 774 30316 
0 774 17944 
0 774 10291 
0 774 19874 
0 774 27511 
0 774 14506 
0 774 9216 
0 774 1446 
0 774 23335 
0 774 2458 
0 774 2337 
0 774 10852 
0 774 16863 
0 774 14105 
0 774 28188 
0 774 5316 
0 774 23667 
0 774 17318 
0 774 22121 
0 774 30860 
0 774 23513 
0 774 17629 
0 774 29958 
0 774 1405 
0 774 6230 
0 774 14976 
0 774 25211 
0 774 31882 
0 774 7856 
0 774 11651 
0 774 20105 
0 774 28348 
0 774 25417 
0 774 20066 
0 774 7224 
0 774 17078 
0 774 1375 
0 774 3957 
0 774 26438 
0 774 12798 
0 774 26418 
0 774 6205 
0 774 15951 
0 774 31215 
0 774 22750 
0 774 11267 
0 774 32546 
0 774 12267 
0 774 17586 
0 774 24544 
0 774 18554 
0 774 3131 
0 774 8140 
0 774 26729 
0 774 8288 
0 774 4348 
0 774 358 
0 774 22056 
0 774 20892 
0 774 7274 
0 774 7703 
0 774 27447 
0 774 10569 
0 774 6110 
0 774 22435 
0 774 24736 
0 774 17541 
0 774 23767 
0 774 8464 
0 774 5623 
0 774 19552 
0 774 10943 
0 774 27543 
0 774 3179 
0 774 20470 
0 774 20878 
0 774 9082 
0 774 11842 
0 774 19699 
0 774 6267 
0 774 2306 
0 774 23816 
0 774 1961 
0 774 10394 
0 774 3394 
0 774 9941 
0 774 11257 
0 774 16151 
0 774 23976 
0 774 19458 
0 774 20463 
0 774 6136 
0 774 14319 
0 774 19058 
0 774 23087 
0 772 24702 
0 949 35666 
0 773 33950 
0 773 28275 
0 773 31933 
0 773 32485 
0 773 33693 
0 773 23990 
0 773 34241 
0 773 32012 
0 773 421 
0 773 22545 
0 773 27445 
0 773 32523 
0 773 10020 
0 773 27734 
0 773 31569 
0 773 25977 
0 773 16932 
0 773 5579 
0 773 24099 
0 773 27329 
0 773 25133 
0 773 30156 
0 773 28744 
0 773 20875 
0 773 24901 
0 773 25863 
0 773 1083 
0 773 26937 
0 773 26479 
0 773 24806 
0 773 28882 
0 773 25981 
0 773 20254 
0 773 32265 
0 773 25700 
0 775 12119 
0 775 20706 
0 775 224 
0 775 1144 
0 775 16058 
0 775 17015 
0 775 19996 
0 775 3718 
0 775 5882 
0 775 9975 
0 775 15351 
0 775 15286 
0 775 9094 
0 775 9357 
0 775 21638 
0 775 19125 
0 885 18632 
0 885 34033 
0 885 5994 
0 885 21251 
0 885 15249 
0 885 278 
0 885 18961 
0 885 35701 
0 885 13642 
0 885 21412 
0 885 17795 
0 885 2310 
0 885 26765 
0 885 30377 
0 885 24538 
0 885 31236 
0 885 34473 
0 885 2400 
0 885 25492 
0 885 13182 
0 885 17047 
0 885 20880 
0 885 20458 
0 885 2385 
0 885 14640 
0 885 12423 
0 885 8309 
0 885 6730 
0 885 21169 
0 885 32492 
0 885 31065 
0 885 7369 
0 885 16976 
0 885 23275 
0 885 28140 
0 885 17962 
0 885 17960 
0 885 21362 
0 885 14063 
0 885 13381 
0 885 23387 
0 885 19137 
0 885 4287 
0 885 14073 
0 885 632 
0 885 4865 
0 885 12505 
0 885 6492 
0 885 5662 
0 885 27442 
0 885 3752 
0 885 523 
0 885 12700 
0 885 5776 
0 885 11885 
0 885 389 
0 885 11849 
0 885 9395 
0 885 921 
0 885 563 
0 885 32957 
0 885 650 
0 885 8598 
0 885 4490 
0 885 13167 
0 885 2956 
0 885 4763 
0 885 4145 
0 885 16284 
0 885 22990 
0 885 6298 
0 885 5610 
0 885 29376 
0 885 17009 
0 885 4102 
0 885 12435 
0 885 20922 
0 885 13989 
0 885 6051 
0 885 9465 
0 885 2925 
0 885 21686 
0 885 6534 
0 885 17048 
0 885 23061 
0 885 29708 
0 885 80 
0 885 472 
0 885 24131 
0 885 26553 
0 885 121 
0 885 8799 
0 885 462 
0 885 184 
0 885 3696 
0 885 1716 
0 885 4989 
0 885 3490 
0 885 5 
0 885 6491 
0 885 374 
0 885 1860 
0 885 25113 
0 885 3481 
0 885 11306 
0 885 3898 
0 885 24288 
0 885 2112 
0 885 13 
0 885 29185 
0 885 4229 
0 885 2120 
0 885 4719 
0 885 7396 
0 885 35787 
0 885 332 
0 885 10250 
0 885 7269 
0 885 1924 
0 885 23284 
0 885 270 
0 885 625 
0 885 212 
0 885 9366 
0 885 1940 
0 885 5761 
0 885 19593 
0 885 133 
0 885 8524 
0 885 7782 
0 885 4344 
0 885 25190 
0 885 13074 
0 885 372 
0 885 2535 
0 885 14865 
0 885 1073 
0 885 92 
0 885 2986 
0 885 262 
0 885 17607 
0 885 2092 
0 885 177 
0 885 441 
0 885 1963 
0 885 7904 
0 885 2902 
0 885 1514 
0 885 31103 
0 885 7428 
0 885 1019 
0 885 4233 
0 885 2734 
0 885 1053 
0 885 255 
0 885 12078 
0 885 33100 
0 885 859 
0 885 1691 
0 885 5474 
0 885 869 
0 885 395 
0 885 28277 
0 885 2901 
0 885 73 
0 885 3302 
0 885 4051 
0 885 846 
0 885 27372 
0 885 3106 
0 885 3754 
0 885 1296 
0 885 1359 
0 885 5133 
0 885 24285 
0 885 5422 
0 885 3958 
0 885 24528 
0 885 5500 
0 885 2663 
0 885 13660 
0 885 1987 
0 885 11955 
0 885 7306 
0 885 70 
0 885 759 
0 885 423 
0 885 3054 
0 885 988 
0 885 554 
0 885 8076 
0 885 13856 
0 885 7817 
0 885 2976 
0 885 1802 
0 885 125 
0 885 25 
0 885 5665 
0 885 45 
0 885 7499 
0 885 1163 
0 885 14148 
0 885 16159 
0 885 865 
0 885 8767 
0 885 208 
0 885 335 
0 885 1269 
0 885 5659 
0 885 23948 
0 885 1356 
0 885 14334 
0 885 25415 
0 885 16448 
0 885 663 
0 885 12135 
0 885 4804 
0 885 12647 
0 885 3745 
0 885 20202 
0 885 23636 
0 853 3570 
0 853 32595 
0 853 5718 
0 853 6106 
0 853 9772 
0 853 16105 
0 853 1301 
0 853 31198 
0 853 19292 
0 853 28981 
0 853 23882 
0 853 9836 
0 853 9955 
0 853 6706 
0 853 19440 
0 853 14427 
0 853 28541 
0 853 5827 
0 853 26468 
0 853 15792 
0 853 428 
0 853 15247 
0 853 14467 
0 853 13725 
0 853 33826 
0 853 16977 
0 853 33847 
0 853 26195 
0 853 9747 
0 853 20057 
0 853 15864 
0 853 14672 
0 853 18923 
0 853 32981 
0 853 30562 
0 853 34497 
0 853 26443 
0 853 33513 
0 853 29254 
0 853 11096 
0 853 31464 
0 853 2580 
0 853 3831 
0 853 9613 
0 853 18728 
0 853 17872 
0 853 27462 
0 853 18077 
0 853 20147 
0 853 27230 
0 853 14312 
0 853 30276 
0 853 2872 
0 853 15419 
0 853 31665 
0 853 29212 
0 853 7992 
0 853 28837 
0 851 23061 
0 851 121 
0 851 11306 
0 851 3898 
0 851 24288 
0 851 7269 
0 851 1924 
0 851 625 
0 851 8524 
0 851 7782 
0 851 4344 
0 851 262 
0 851 17607 
0 851 7428 
0 851 1019 
0 851 4233 
0 851 2734 
0 851 1691 
0 851 5474 
0 851 869 
0 851 395 
0 851 4051 
0 851 846 
0 851 27372 
0 851 3958 
0 851 24528 
0 851 5500 
0 851 2663 
0 851 13660 
0 851 1987 
0 851 11955 
0 851 554 
0 851 8076 
0 851 13856 
0 851 25 
0 851 5665 
0 851 45 
0 851 7499 
0 851 1163 
0 851 14148 
0 851 16159 
0 851 5659 
0 851 23948 
0 851 1356 
0 851 14334 
0 851 25415 
0 851 16448 
0 851 663 
0 851 12135 
0 851 4804 
0 851 12647 
0 851 3745 
0 851 20202 
0 851 23636 
0 884 11429 
0 884 9174 
0 884 12668 
0 884 13655 
0 884 8308 
0 884 11774 
0 884 12890 
0 884 16913 
0 884 11328 
0 884 30104 
0 884 24324 
0 884 10900 
0 884 1500 
0 884 28981 
0 884 32998 
0 884 27016 
0 884 23857 
0 884 9787 
0 884 31099 
0 884 31324 
0 884 7718 
0 884 19116 
0 884 30340 
0 884 19566 
0 884 10562 
0 884 6363 
0 884 22751 
0 884 33708 
0 884 20883 
0 884 2398 
0 884 29908 
0 884 18360 
0 884 15470 
0 884 30266 
0 884 11539 
0 850 18632 
0 850 34033 
0 850 5994 
0 850 21251 
0 850 15249 
0 850 278 
0 850 18961 
0 850 35701 
0 850 13642 
0 850 21412 
0 850 17795 
0 850 2310 
0 850 26765 
0 850 30377 
0 850 24538 
0 850 31236 
0 850 34473 
0 850 2400 
0 850 25492 
0 850 13182 
0 850 17047 
0 850 20880 
0 850 20458 
0 850 2385 
0 850 14640 
0 850 12423 
0 850 8309 
0 850 6730 
0 850 21169 
0 850 32492 
0 850 31065 
0 850 7369 
0 850 16976 
0 850 23275 
0 850 28140 
0 850 17962 
0 850 17960 
0 850 21362 
0 850 14063 
0 850 13381 
0 850 23387 
0 850 19137 
0 850 4287 
0 850 14073 
0 850 632 
0 850 4865 
0 850 12505 
0 850 6492 
0 850 5662 
0 850 27442 
0 850 3752 
0 850 523 
0 850 12700 
0 850 5776 
0 850 11885 
0 850 389 
0 850 11849 
0 850 9395 
0 850 921 
0 850 563 
0 850 32957 
0 850 650 
0 850 8598 
0 850 4490 
0 850 13167 
0 850 2956 
0 850 4763 
0 850 4145 
0 850 16284 
0 850 22990 
0 850 6298 
0 850 5610 
0 850 29376 
0 850 17009 
0 850 4102 
0 850 12435 
0 850 20922 
0 850 13989 
0 850 6051 
0 850 2925 
0 850 21686 
0 850 6534 
0 850 17048 
0 850 29708 
0 850 80 
0 850 472 
0 850 24131 
0 850 26553 
0 850 8799 
0 850 462 
0 850 184 
0 850 3696 
0 850 1716 
0 850 4989 
0 850 3490 
0 850 5 
0 850 6491 
0 850 374 
0 850 1860 
0 850 25113 
0 850 3481 
0 850 2112 
0 850 13 
0 850 29185 
0 850 4229 
0 850 2120 
0 850 4719 
0 850 7396 
0 850 332 
0 850 10250 
0 850 23284 
0 850 270 
0 850 212 
0 850 9366 
0 850 1940 
0 850 5761 
0 850 19593 
0 850 133 
0 850 25190 
0 850 13074 
0 850 372 
0 850 2535 
0 850 14865 
0 850 1073 
0 850 92 
0 850 2986 
0 850 2092 
0 850 177 
0 850 441 
0 850 1963 
0 850 7904 
0 850 2902 
0 850 1514 
0 850 31103 
0 850 1053 
0 850 255 
0 850 12078 
0 850 33100 
0 850 859 
0 850 28277 
0 850 2901 
0 850 73 
0 850 3302 
0 850 3106 
0 850 3754 
0 850 1296 
0 850 1359 
0 850 5133 
0 850 24285 
0 850 5422 
0 850 7306 
0 850 70 
0 850 759 
0 850 423 
0 850 3054 
0 850 988 
0 850 7817 
0 850 2976 
0 850 1802 
0 850 125 
0 850 865 
0 850 8767 
0 850 208 
0 850 335 
0 850 1269 
0 852 33895 
0 852 15570 
1 1689 23128 
1 1689 22757 
1 1895 35059 
1 1895 6212 
1 1895 15506 
1 1895 7593 
1 1895 195 
1 1895 3531 
1 1895 18415 
1 1895 1124 
1 1895 5832 
1 1895 3541 
1 1850 6212 
1 1850 23147 
1 1850 6659 
1 1850 8044 
1 1850 7372 
1 1894 19053 
1 1894 14815 
1 1894 11641 
1 1894 8100 
1 1894 11571 
1 1857 6212 
1 1857 15506 
1 1857 7593 
1 1857 195 
1 1857 3531 
1 1857 18415 
1 1857 1124 
1 1857 5832 
1 1857 14815 
1 1857 3460 
1 1857 23044 
1 1857 14291 
1 1857 15904 
1 1857 6991 
1 1857 6558 
1 1857 4327 
1 1857 4251 
1 1857 10774 
1 1857 3541 
1 1857 1993 
1 1857 11571 
1 1857 4507 
1 1857 161 
1 1857 23147 
1 1857 1260 
1 1857 1908 
1 1857 15241 
1 1857 692 
1 1857 295 
1 1857 9206 
1 1857 3137 
1 1857 101 
1 1857 19564 
1 1857 345 
1 1857 9203 
1 1857 15558 
1 1857 13926 
1 1857 4362 
1 1857 15826 
1 1857 22172 
1 1857 1044 
1 1857 9255 
1 1857 10067 
1 1857 448 
1 1857 11677 
1 1857 10243 
1 1857 24693 
1 1857 647 
1 1857 12735 
1 1857 13198 
1 1857 23123 
1 1857 11644 
1 1857 6548 
1 1857 1648 
1 1857 24173 
1 1857 6909 
1 1857 4475 
1 1857 11799 
1 1857 11740 
1 1857 2898 
1 1857 3599 
1 1857 5793 
1 1857 20271 
1 1857 8782 
1 1857 22485 
1 1857 690 
1 1857 2258 
1 1857 23614 
1 1857 10331 
1 1857 22382 
1 1857 18356 
1 1857 211 
1 1857 380 
1 1857 237 
1 1857 393 
1 1857 5721 
1 1857 198 
1 1857 25819 
1 1857 2209 
1 1857 10109 
1 1857 9887 
1 1857 4061 
1 1857 27028 
1 1857 8604 
1 1857 17972 
1 1857 24636 
1 1857 13684 
1 1857 24481 
1 1857 15623 
1 1857 9221 
1 1857 24696 
1 1857 1812 
1 1857 12205 
1 1857 475 
1 1857 25127 
1 1857 4452 
1 1857 1517 
1 1857 446 
1 1857 11189 
1 1857 7605 
1 1857 2628 
1 1857 2572 
1 1857 4089 
1 1857 10736 
1 1857 20037 
1 1857 4644 
1 1857 20977 
1 1857 3786 
1 1857 3784 
1 1857 28423 
1 1875 6212 
1 1875 15506 
1 1875 7593 
1 1875 195 
1 1875 3531 
1 1875 18415 
1 1875 1124 
1 1875 5832 
1 1875 19053 
1 1875 11641 
1 1875 8100 
1 1875 3460 
1 1875 23044 
1 1875 14291 
1 1875 15904 
1 1875 6991 
1 1875 6558 
1 1875 4327 
1 1875 10774 
1 1875 1993 
1 1875 18694 
1 1875 11672 
1 1875 16969 
1 1875 161 
1 1875 23147 
1 1875 1260 
1 1875 1908 
1 1875 2054 
1 1875 15241 
1 1875 692 
1 1875 295 
1 1875 3137 
1 1875 101 
1 1875 12107 
1 1875 345 
1 1875 9203 
1 1875 20747 
1 1875 874 
1 1875 22172 
1 1875 10200 
1 1875 1044 
1 1875 9255 
1 1875 10067 
1 1875 448 
1 1875 11677 
1 1875 10243 
1 1875 24693 
1 1875 5384 
1 1875 22187 
1 1875 12139 
1 1875 6659 
1 1875 8672 
1 1875 23123 
1 1875 6548 
1 1875 1648 
1 1875 24173 
1 1875 19712 
1 1875 6909 
1 1875 11799 
1 1875 32 
1 1875 8044 
1 1875 23851 
1 1875 5793 
1 1875 20271 
1 1875 8782 
1 1875 22485 
1 1875 690 
1 1875 2258 
1 1875 27843 
1 1875 18356 
1 1875 211 
1 1875 380 
1 1875 237 
1 1875 393 
1 1875 5721 
1 1875 198 
1 1875 25819 
1 1875 10109 
1 1875 7372 
1 1875 9887 
1 1875 28942 
1 1875 4061 
1 1875 27028 
1 1875 8604 
1 1875 17972 
1 1875 10 
1 1875 12618 
1 1875 15623 
1 1875 9221 
1 1875 24696 
1 1875 1812 
1 1875 13540 
1 1875 4452 
1 1875 9301 
1 1875 1517 
1 1875 446 
1 1875 29724 
1 1875 9276 
1 1875 5836 
1 1875 2628 
1 1875 3818 
1 1875 26634 
1 1875 17903 
1 1875 30977 
1 1692 10668 
1 1692 4921 
1 1692 23128 
1 1692 3338 
1 1856 18741 
1 1856 6659 
1 1856 8044 
1 1856 23851 
1 1856 27740 
1 1856 7372 
1 1856 28942 
1 1856 10 
1 1856 12618 
1 1856 13540 
1 1856 6314 
1 1856 29724 
1 1856 9276 
1 1856 5836 
1 1856 3818 
1 1856 26634 
1 1856 17903 
1 1856 30977 
1 1856 20310 
1 1856 23011 
1 1856 30913 