ITEM: TIMESTEP
15750000
ITEM: NUMBER OF ENTRIES
2710
ITEM: BOX BOUNDS ff ff ff
-0.01 0.45
-0.15 0.15
-0.08 0.1
ITEM: ENTRIES c_pwc[1] c_pwc[2] c_pwc[3] 
0 938 6749 
0 938 15622 
0 936 443 
0 932 1166 
0 932 1028 
0 932 13887 
0 932 10520 
0 930 10003 
0 930 5814 
0 930 11682 
0 930 1887 
0 928 513 
0 928 5965 
0 928 13766 
0 928 5829 
0 926 12294 
0 926 2254 
0 926 1595 
0 926 4439 
0 926 12450 
0 926 3692 
0 926 6905 
0 924 4581 
0 922 10618 
0 922 2996 
0 922 4986 
0 922 4617 
0 922 5739 
0 920 6205 
0 920 2996 
0 920 8809 
0 920 6944 
0 920 11423 
0 920 5329 
0 920 7938 
0 792 6205 
0 792 2996 
0 792 8809 
0 792 6944 
0 792 11423 
0 792 5329 
0 792 7938 
0 790 10618 
0 790 4986 
0 790 4617 
0 790 5739 
0 788 4581 
0 786 12294 
0 786 2254 
0 786 1595 
0 786 4439 
0 786 6905 
0 784 513 
0 784 5965 
0 784 5829 
0 782 5814 
0 782 1887 
0 780 1166 
0 780 1028 
0 780 13887 
0 780 10520 
0 776 443 
0 787 12450 
0 787 3692 
0 785 13766 
0 783 11682 
0 775 6749 
1 659 2909 
1 659 2696 
1 659 4124 
1 661 2909 
1 661 126 
1 660 2909 
1 660 126 
1 660 2696 
1 660 747 
1 660 4739 
1 660 4124 
0 952 9951 
0 952 1111 
0 952 5022 
0 952 13318 
0 952 3405 
0 952 3269 
0 952 5468 
0 952 11481 
0 950 2288 
0 950 707 
0 950 2203 
0 950 1482 
0 948 2288 
0 948 10001 
0 946 4208 
0 944 7841 
0 944 4754 
0 942 10124 
0 940 3164 
0 940 50 
0 940 9700 
0 774 1479 
0 772 3164 
0 772 50 
0 772 9700 
0 770 10124 
0 768 7841 
0 768 4754 
0 766 4208 
0 764 2288 
0 764 10001 
0 762 707 
0 762 2203 
0 762 1482 
0 760 7998 
0 760 9951 
0 760 5022 
0 760 13318 
0 760 3269 
0 760 5468 
0 760 11481 
0 761 1111 
0 761 3405 
0 954 7998 
0 938 1479 
0 884 298 
0 884 3146 
0 884 10323 
0 884 12187 
0 884 2418 
0 884 9553 
0 884 1571 
0 884 2245 
0 884 3655 
0 884 8602 
0 884 646 
0 884 470 
0 884 9687 
0 884 4348 
0 884 906 
0 884 5396 
0 884 3087 
0 884 986 
0 884 13552 
0 884 82 
0 884 5176 
0 884 960 
0 884 13036 
0 884 5338 
0 884 2020 
0 884 1098 
0 884 3296 
0 884 15338 
0 884 3891 
0 884 14508 
0 884 6647 
0 884 10616 
0 884 8248 
0 884 15576 
0 884 6269 
0 884 1969 
0 884 11442 
0 884 11812 
0 884 13013 
0 884 2458 
0 884 11251 
0 884 8709 
0 884 799 
0 884 6370 
0 884 13692 
0 884 4915 
0 884 13778 
0 884 2160 
0 884 7204 
0 862 954 
0 857 1787 
0 854 14074 
0 854 336 
0 854 13465 
0 854 14727 
0 854 14140 
0 854 9843 
0 854 8242 
0 854 14978 
0 854 11451 
0 854 9186 
0 854 11913 
0 854 14228 
0 854 3067 
0 854 2999 
0 854 5735 
0 854 3771 
0 854 4094 
0 854 5953 
0 854 2530 
0 854 9691 
0 854 7522 
0 854 12008 
0 854 11438 
0 854 10123 
0 854 3266 
0 854 8106 
0 854 6798 
0 854 12400 
0 854 431 
0 854 8288 
0 854 10643 
0 854 9426 
0 854 5145 
0 854 13395 
0 854 7799 
0 854 7759 
0 854 9958 
0 854 3481 
0 854 10939 
0 854 11022 
0 854 11278 
0 854 9816 
0 854 11490 
0 854 4775 
0 854 2600 
0 854 12757 
0 854 6386 
0 854 8339 
0 854 4395 
0 854 10907 
0 854 6414 
0 854 2301 
0 854 11504 
0 854 12070 
0 854 4920 
0 854 2529 
0 854 10191 
0 854 54 
0 854 4639 
0 854 6700 
0 850 298 
0 850 3146 
0 850 3655 
0 850 8602 
0 850 646 
0 850 470 
0 850 12685 
0 850 906 
0 850 5396 
0 850 3087 
0 850 986 
0 850 4189 
0 850 59 
0 850 960 
0 850 13036 
0 850 5338 
0 850 678 
0 850 1142 
0 850 1323 
0 850 1098 
0 850 6418 
0 850 12215 
0 850 4773 
0 850 11000 
0 850 2503 
0 850 5481 
0 850 11442 
0 850 5921 
0 850 5444 
0 850 2458 
0 850 9905 
0 850 5917 
0 850 799 
0 850 6370 
0 850 1104 
0 850 4915 
0 850 13778 
0 850 2160 
0 821 954 
0 918 328 
0 918 6691 
0 918 924 
0 918 537 
0 918 3427 
0 918 12498 
0 918 2795 
0 918 1035 
0 918 2242 
0 918 8594 
0 918 11712 
0 918 12748 
0 918 4161 
0 918 11246 
0 918 1657 
0 918 14883 
0 918 4660 
0 916 6130 
0 916 479 
0 916 14068 
0 916 14336 
0 916 3126 
0 916 2929 
0 916 9254 
0 916 2733 
0 916 3804 
0 916 4788 
0 916 11302 
0 916 6654 
0 916 13881 
0 916 5441 
0 916 11445 
0 916 11869 
0 916 970 
0 914 1737 
0 914 340 
0 914 4329 
0 914 1608 
0 914 86 
0 914 13977 
0 914 4651 
0 914 7725 
0 914 6544 
0 914 468 
0 914 7456 
0 914 10850 
0 914 3124 
0 914 4437 
0 914 7399 
0 914 10190 
0 914 1939 
0 914 14687 
0 914 8397 
0 912 3363 
0 912 3684 
0 912 8770 
0 912 6827 
0 912 7452 
0 912 4800 
0 912 9641 
0 912 14285 
0 912 4461 
0 910 352 
0 910 10627 
0 910 13198 
0 885 12685 
0 885 4189 
0 885 59 
0 885 678 
0 885 1142 
0 885 1323 
0 885 6418 
0 885 12215 
0 885 4773 
0 885 11000 
0 885 2503 
0 885 5481 
0 885 5921 
0 885 5444 
0 885 9905 
0 885 5917 
0 885 1104 
0 853 1187 
0 853 3362 
0 853 2695 
0 853 4241 
0 853 6080 
0 853 7054 
0 853 11378 
0 853 110 
0 853 6426 
0 853 4385 
0 853 2735 
0 853 12474 
0 802 352 
0 802 10627 
0 802 13198 
0 800 3363 
0 800 1608 
0 800 3684 
0 800 8770 
0 800 6827 
0 800 7452 
0 800 4800 
0 800 9641 
0 800 14285 
0 800 4461 
0 798 1737 
0 798 340 
0 798 4329 
0 798 86 
0 798 13977 
0 798 4651 
0 798 7725 
0 798 6544 
0 798 468 
0 798 7456 
0 798 10850 
0 798 3124 
0 798 4437 
0 798 7399 
0 798 10190 
0 798 1939 
0 798 14687 
0 798 8397 
0 796 6130 
0 796 479 
0 796 14068 
0 796 12498 
0 796 14336 
0 796 3126 
0 796 2929 
0 796 9254 
0 796 2733 
0 796 3804 
0 796 4788 
0 796 11302 
0 796 6654 
0 796 1657 
0 796 13881 
0 796 5441 
0 796 11445 
0 796 11869 
0 796 970 
0 794 328 
0 794 924 
0 794 537 
0 794 3427 
0 794 2795 
0 794 1035 
0 794 2242 
0 794 11712 
0 794 12748 
0 794 4161 
0 794 11475 
0 794 14883 
0 794 2465 
0 794 4660 
0 919 11475 
0 795 6691 
0 795 8594 
0 795 11246 
0 920 2465 
0 855 4868 
0 855 3166 
0 855 849 
0 852 4639 
0 852 9131 
0 852 6700 
0 852 8913 
0 852 6955 
0 852 2365 
0 852 7210 
0 894 12296 
0 894 4428 
0 894 876 
0 894 2634 
0 894 1281 
0 894 4350 
0 894 465 
0 894 1487 
0 894 12550 
0 894 5996 
0 894 6924 
0 894 3490 
0 894 1290 
0 894 7606 
0 894 14842 
0 894 731 
0 894 4901 
0 894 8019 
0 894 12280 
0 894 1016 
0 894 9784 
0 894 157 
0 894 5472 
0 894 12019 
0 894 6527 
0 894 701 
0 894 6365 
0 894 13301 
0 894 5716 
0 894 4478 
0 894 11186 
0 894 10030 
0 894 3569 
0 894 13612 
0 894 8021 
0 894 12578 
0 894 4789 
0 894 13186 
0 894 1811 
0 894 5211 
0 894 8013 
0 894 14781 
0 894 2483 
0 894 10107 
0 894 13470 
0 894 9759 
0 894 4866 
0 894 14665 
0 894 12355 
0 894 1093 
0 894 12543 
0 894 10601 
0 894 5870 
0 894 3873 
0 894 14760 
0 855 7246 
0 855 1816 
0 855 6804 
0 855 10945 
0 855 703 
0 855 11467 
0 855 9558 
0 855 1280 
0 855 10833 
0 855 11373 
0 855 876 
0 855 8357 
0 855 12395 
0 855 12232 
0 855 14177 
0 855 4465 
0 855 5292 
0 855 1164 
0 855 6113 
0 855 3669 
0 855 5428 
0 855 10659 
0 855 6611 
0 855 8541 
0 855 8474 
0 855 3915 
0 855 14075 
0 855 496 
0 855 8292 
0 855 13439 
0 855 8457 
0 855 4392 
0 855 14124 
0 855 5817 
0 855 8377 
0 855 5949 
0 855 5226 
0 855 6331 
0 855 3461 
0 855 2932 
0 855 9831 
0 855 1455 
0 855 12680 
0 855 2965 
0 962 851 
0 962 8043 
0 962 10313 
0 962 3449 
0 962 15105 
0 962 4830 
0 960 8837 
0 960 15441 
0 960 8317 
0 960 1416 
0 958 5832 
0 958 1947 
0 956 14311 
0 956 5170 
0 954 7552 
0 954 6845 
0 895 14261 
0 895 10773 
0 895 11990 
0 895 11848 
0 895 8646 
0 895 2227 
0 895 11517 
0 895 3065 
0 895 13871 
0 758 6845 
0 756 14311 
0 756 5170 
0 754 1947 
0 752 8837 
0 752 8317 
0 752 1416 
0 750 851 
0 750 8043 
0 750 10313 
0 750 3449 
0 750 15105 
0 751 4830 
0 868 7198 
0 861 137 
0 861 684 
0 861 2775 
0 857 5221 
0 857 1118 
0 857 9554 
0 857 7198 
0 854 1337 
0 854 3113 
0 854 5496 
0 822 137 
0 822 684 
0 822 2775 
0 821 7198 
0 820 5221 
0 820 1118 
0 820 9554 
0 858 12233 
0 827 12233 
0 936 1180 
0 934 2005 
0 930 4444 
0 930 766 
0 930 12852 
0 926 2823 
0 924 14356 
0 924 1007 
0 922 7050 
0 922 1880 
0 922 10970 
0 922 283 
0 922 4143 
0 922 922 
0 922 418 
0 922 2351 
0 920 2652 
0 920 5836 
0 920 5306 
0 920 7294 
0 920 11758 
0 920 4085 
0 792 5836 
0 792 837 
0 792 5793 
0 792 8064 
0 792 9580 
0 790 7050 
0 790 1880 
0 790 1106 
0 788 14356 
0 788 4317 
0 788 694 
0 782 4444 
0 782 391 
0 782 766 
0 778 2005 
0 931 391 
0 925 4317 
0 925 694 
0 925 4535 
0 923 1106 
0 921 837 
0 921 5793 
0 921 8064 
0 921 9580 
0 793 2652 
0 793 2349 
0 793 5306 
0 793 7294 
0 793 11758 
0 793 4085 
0 791 10970 
0 791 283 
0 791 4143 
0 791 922 
0 791 418 
0 791 2351 
0 789 1007 
0 789 4535 
0 787 2823 
0 783 12852 
1 662 6115 
1 662 3307 
1 662 8074 
1 1692 1532 
1 1692 485 
1 1895 13080 
1 1895 14863 
1 1895 9494 
1 1895 12676 
1 1894 153 
1 1894 9201 
1 1894 11829 
1 1894 14660 
1 1894 14904 
1 1894 7338 
1 1894 459 
1 1894 4996 
1 1850 12676 
1 1850 1718 
1 1850 7307 
1 1850 4570 
1 1850 6087 
1 1857 153 
1 1857 9201 
1 1857 11829 
1 1857 13080 
1 1857 14863 
1 1857 8219 
1 1857 14904 
1 1857 1529 
1 1857 7338 
1 1857 15422 
1 1857 11819 
1 1857 13033 
1 1857 459 
1 1857 9494 
1 1857 4996 
1 1857 13959 
1 1857 12676 
1 1857 7222 
1 1857 3502 
1 1857 9615 
1 1857 12998 
1 1857 170 
1 1857 11616 
1 1857 12109 
1 1857 407 
1 1857 10558 
1 1857 3376 
1 1857 1718 
1 1857 361 
1 1857 3565 
1 1857 225 
1 1857 6965 
1 1857 2588 
1 1857 4702 
1 1857 4610 
1 1857 13118 
1 1857 6849 
1 1857 13798 
1 1857 13128 
1 1857 105 
1 1857 4571 
1 1857 4832 
1 1857 10888 
1 1857 1031 
1 1857 13327 
1 1857 7410 
1 1857 429 
1 1857 9694 
1 1857 3933 
1 1857 2267 
1 1857 2915 
1 1857 3209 
1 1857 131 
1 1857 1298 
1 1857 10539 
1 654 6279 
1 1875 153 
1 1875 9201 
1 1875 11829 
1 1875 13080 
1 1875 14863 
1 1875 8219 
1 1875 14904 
1 1875 1529 
1 1875 7338 
1 1875 15422 
1 1875 11819 
1 1875 13033 
1 1875 459 
1 1875 9494 
1 1875 4996 
1 1875 13959 
1 1875 12676 
1 1875 7222 
1 1875 3502 
1 1875 9615 
1 1875 12998 
1 1875 170 
1 1875 11616 
1 1875 12109 
1 1875 407 
1 1875 10558 
1 1875 3376 
1 1875 1718 
1 1875 361 
1 1875 3565 
1 1875 225 
1 1875 6965 
1 1875 2588 
1 1875 4702 
1 1875 4610 
1 1875 13118 
1 1875 6849 
1 1875 13798 
1 1875 7307 
1 1875 13128 
1 1875 105 
1 1875 4571 
1 1875 4832 
1 1875 10888 
1 1875 1031 
1 1875 13327 
1 1875 4570 
1 1875 9694 
1 1875 3933 
1 1875 2267 
1 1875 2915 
1 1875 783 
1 1875 6087 
1 1875 3209 
1 1875 131 
1 1875 1298 
1 1875 2692 
1 1875 10539 
1 1896 14660 
1 658 6279 
1 1856 7307 
1 1856 4570 
1 1856 783 
1 1856 6087 
1 1856 2692 
1 1689 485 
1 1852 1765 
1 1862 15157 
1 1862 3869 
1 1862 5727 
1 1862 15151 
1 1862 15000 
1 1862 14237 
1 1897 14660 
1 1864 14660 
1 1864 8219 
1 1864 15157 
1 1864 11526 
1 1864 361 
1 1864 12245 
1 1864 8080 
1 1864 13432 
1 1864 7005 
1 1864 14237 
1 1863 14660 
1 1863 15157 
1 1863 11526 
1 1863 12245 
1 1863 8080 
1 1863 14237 
1 1879 7410 
1 1879 429 
1 1879 11771 
1 1879 1765 
1 1881 14660 
1 1881 8219 
1 1881 15157 
1 1881 11526 
1 1881 12245 
1 1881 8080 
1 1881 13432 
1 1881 3869 
1 1881 7005 
1 1881 14237 
1 563 485 
1 1880 8219 
1 1880 361 
1 1880 13432 
1 1880 7005 
1 1880 13344 
1 514 13722 
1 514 11871 
1 514 10072 
1 513 13722 
1 513 11871 
1 515 13722 
1 515 11871 
1 515 10072 
1 1691 9857 
1 1691 4757 
1 516 7115 
1 516 10072 
1 535 13722 
1 536 13722 
1 477 7115 
1 477 10072 
1 1861 2811 
1 1861 14734 
1 1861 7477 
1 1861 1345 
1 1874 5727 
1 1874 15151 
1 1874 2811 
1 1874 15000 
1 1874 14734 
1 1874 7477 
1 1874 1345 
1 1873 2811 
1 1873 14734 
1 1873 1345 
1 1882 5727 
1 1882 15151 
1 1882 15000 
1 1882 14237 
1 530 1345 
1 1883 5727 
1 1883 15151 
1 1883 15000 
1 1883 14237 
1 479 12129 
1 479 13888 
1 1889 5727 
1 1889 15151 
1 1890 5727 
1 1890 7477 
1 560 9857 
1 484 13344 
1 484 11771 
1 1695 9857 
1 485 11771 
1 485 1765 
1 485 12129 
1 485 13888 
1 1820 13344 
1 1845 13344 
1 486 11771 
1 486 13888 
1 1891 14585 
1 1891 2811 
1 1891 14734 
1 1891 7477 
1 487 11771 
1 487 13888 
1 488 6479 
1 1694 9857 
1 1694 7276 
1 660 1548 
1 660 2620 
1 660 3843 
1 660 8076 
1 660 8473 
1 660 546 
1 660 167 
1 660 5429 
1 660 9956 
1 660 913 
1 660 1709 
1 660 2040 
1 660 7562 
1 490 825 
1 490 6479 
1 490 4563 
1 1844 4563 
1 491 825 
1 491 6479 
1 491 4563 
1 491 13107 
1 492 4563 
1 493 4563 
1 493 13107 
1 1693 7562 
1 1693 3173 
1 555 7276 
1 494 5210 
1 494 13107 
1 495 10500 
1 554 10500 
1 1697 8523 
1 496 5210 
1 496 10500 
1 497 5210 
1 552 10500 
1 1696 8074 
1 537 13722 
1 527 1345 
1 541 1345 
1 1872 14585 
1 1893 7477 
1 1892 7477 
1 659 1548 
1 659 8473 
1 659 167 
1 659 913 
1 661 2620 
1 661 3843 
1 661 8076 
1 661 546 
1 661 5429 
1 661 9956 
1 661 1709 
1 661 7562 
0 952 57 
0 952 885 
0 948 9571 
0 948 5296 
0 944 10852 
0 764 9571 
0 760 57 
0 761 885 
0 918 5543 
0 918 5960 
0 918 858 
0 918 2577 
0 918 3445 
0 916 5327 
0 916 2944 
0 916 13952 
0 916 2170 
0 916 3466 
0 916 1897 
0 916 3116 
0 916 15314 
0 914 2033 
0 914 5873 
0 914 2853 
0 914 571 
0 914 7744 
0 914 101 
0 914 1267 
0 914 13861 
0 914 4573 
0 912 8663 
0 912 3143 
0 912 5436 
0 885 9251 
0 885 6539 
0 885 832 
0 885 11314 
0 885 10492 
0 885 5684 
0 885 2459 
0 885 8961 
0 885 4149 
0 885 6404 
0 885 12637 
0 885 3758 
0 885 3424 
0 885 8401 
0 885 11104 
0 885 6983 
0 885 15181 
0 885 2938 
0 885 12664 
0 885 6398 
0 885 2263 
0 885 708 
0 885 12 
0 885 1254 
0 885 2059 
0 885 6434 
0 885 5160 
0 885 10202 
0 885 68 
0 885 2152 
0 885 6209 
0 885 4231 
0 885 295 
0 885 11003 
0 885 1931 
0 885 884 
0 885 9142 
0 885 368 
0 885 983 
0 885 3140 
0 885 3999 
0 885 4379 
0 885 387 
0 885 1470 
0 885 9967 
0 885 1719 
0 885 2050 
0 885 522 
0 885 2249 
0 885 43 
0 885 334 
0 885 907 
0 885 2946 
0 885 691 
0 885 6028 
0 885 7718 
0 885 3130 
0 885 2 
0 885 1630 
0 885 259 
0 885 5666 
0 885 3194 
0 885 683 
0 885 5398 
0 885 995 
0 885 1980 
0 885 452 
0 885 193 
0 885 2209 
0 885 953 
0 885 8551 
0 885 1783 
0 885 146 
0 885 3718 
0 885 1269 
0 885 2400 
0 885 95 
0 885 121 
0 885 2183 
0 885 66 
0 885 56 
0 885 1102 
0 885 6565 
0 885 3748 
0 885 1444 
0 885 2547 
0 885 385 
0 885 515 
0 885 2519 
0 885 7478 
0 885 317 
0 885 21 
0 885 438 
0 885 4417 
0 885 118 
0 885 3769 
0 885 3 
0 885 12682 
0 885 5509 
0 885 128 
0 885 531 
0 885 7923 
0 885 9678 
0 885 2355 
0 885 93 
0 885 39 
0 885 343 
0 885 318 
0 885 905 
0 885 1795 
0 885 6038 
0 885 1801 
0 885 653 
0 885 14 
0 885 49 
0 885 130 
0 885 5678 
0 885 1328 
0 885 8572 
0 885 40 
0 885 329 
0 885 1434 
0 885 12735 
0 885 2324 
0 885 386 
0 853 1708 
0 853 3649 
0 853 10813 
0 853 10854 
0 853 12270 
0 853 8563 
0 853 7666 
0 853 9800 
0 853 8881 
0 853 11737 
0 853 176 
0 853 10236 
0 853 13950 
0 853 5877 
0 853 5116 
0 853 6764 
0 853 13018 
0 853 13996 
0 853 10844 
0 853 7479 
0 853 14045 
0 853 4664 
0 853 14035 
0 853 11576 
0 853 7325 
0 853 12113 
0 853 12046 
0 853 1744 
0 853 3435 
0 853 8058 
0 853 8679 
0 853 14745 
0 853 5135 
0 853 7015 
0 851 6552 
0 851 1980 
0 851 193 
0 851 2209 
0 851 3718 
0 851 1269 
0 851 2400 
0 851 1102 
0 851 6565 
0 851 3748 
0 851 2519 
0 851 3769 
0 851 3 
0 851 12682 
0 851 5509 
0 851 531 
0 851 7923 
0 851 9678 
0 851 2355 
0 851 905 
0 851 1795 
0 851 6038 
0 851 1801 
0 851 49 
0 851 130 
0 851 5678 
0 851 1328 
0 851 8572 
0 851 329 
0 851 1434 
0 851 12735 
0 851 2324 
0 851 386 
0 802 8421 
0 800 2853 
0 800 9636 
0 800 8663 
0 800 7359 
0 800 13861 
0 800 3143 
0 798 6086 
0 798 2033 
0 798 5873 
0 798 1747 
0 798 6367 
0 798 101 
0 796 5327 
0 796 13952 
0 796 7297 
0 796 2170 
0 796 14286 
0 796 12556 
0 794 5543 
0 794 5960 
0 919 5824 
0 917 7297 
0 917 14286 
0 917 12556 
0 915 6086 
0 915 1747 
0 915 6367 
0 913 9636 
0 913 7359 
0 913 13861 
0 911 8421 
0 911 5585 
0 801 5436 
0 799 2853 
0 799 571 
0 799 7744 
0 799 1267 
0 799 4573 
0 797 2944 
0 797 3466 
0 797 1897 
0 797 3116 
0 797 15314 
0 795 858 
0 795 2577 
0 795 5824 
0 795 3445 
0 884 323 
0 884 13674 
0 884 5016 
0 884 6552 
0 884 13790 
0 884 14478 
0 884 1749 
0 884 7653 
0 884 3154 
0 884 14996 
0 884 9412 
0 884 10133 
0 884 12473 
0 884 5597 
0 884 14365 
0 884 14952 
0 884 4338 
0 884 2027 
0 884 12563 
0 884 1541 
0 884 10657 
0 884 4407 
0 884 2499 
0 884 15216 
0 884 67 
0 884 9252 
0 850 9251 
0 850 6539 
0 850 832 
0 850 5016 
0 850 11314 
0 850 10492 
0 850 5684 
0 850 2459 
0 850 8961 
0 850 4149 
0 850 6404 
0 850 12637 
0 850 3758 
0 850 3424 
0 850 8401 
0 850 11104 
0 850 6983 
0 850 15181 
0 850 2938 
0 850 12664 
0 850 6398 
0 850 2263 
0 850 708 
0 850 12 
0 850 1254 
0 850 2059 
0 850 6434 
0 850 5160 
0 850 10202 
0 850 68 
0 850 2152 
0 850 6209 
0 850 4231 
0 850 295 
0 850 11003 
0 850 1931 
0 850 884 
0 850 9142 
0 850 368 
0 850 983 
0 850 3140 
0 850 3999 
0 850 4379 
0 850 387 
0 850 1470 
0 850 9967 
0 850 1719 
0 850 2050 
0 850 522 
0 850 2249 
0 850 43 
0 850 334 
0 850 907 
0 850 2946 
0 850 691 
0 850 6028 
0 850 7718 
0 850 3130 
0 850 2 
0 850 1630 
0 850 259 
0 850 5666 
0 850 3194 
0 850 683 
0 850 5398 
0 850 995 
0 850 452 
0 850 953 
0 850 8551 
0 850 1783 
0 850 146 
0 850 95 
0 850 121 
0 850 2183 
0 850 66 
0 850 56 
0 850 2547 
0 850 385 
0 850 515 
0 850 317 
0 850 21 
0 850 438 
0 850 4417 
0 850 118 
0 850 128 
0 850 93 
0 850 39 
0 850 343 
0 850 318 
0 850 653 
0 850 14 
0 850 40 
1 2717 2335 
1 2717 873 
1 2671 10699 
1 2703 7954 
1 2703 7881 
1 2703 873 
1 2712 1800 
1 2712 14015 
1 2725 7881 
1 2725 8704 
1 2725 13591 
1 2725 873 
1 842 6732 
1 842 4815 
1 842 1684 
1 842 188 
1 842 6818 
1 842 4349 
1 842 14230 
1 842 4345 
1 842 2923 
1 2695 1800 
1 2695 14015 
1 2701 7881 
1 2701 8704 
1 2701 13591 
1 2701 873 
1 87 5636 
1 2702 7954 
1 2702 7881 
1 2702 873 
1 2502 3073 
1 2524 10108 
1 2678 1800 
1 844 2069 
1 844 11489 
1 77 3217 
1 77 12163 
1 787 6732 
1 787 4815 
1 787 1684 
1 787 690 
1 787 3073 
1 787 6818 
1 78 3217 
1 84 926 
1 2722 14280 
1 2722 14191 
1 2722 10575 
1 2722 13343 
1 2673 10699 
1 80 926 
1 83 5845 
1 83 12163 
1 2672 10699 
1 2698 14280 
1 2698 2335 
1 2698 14191 
1 81 5845 
1 81 12163 
1 81 8507 
1 81 926 
1 124 7954 
1 82 5845 
1 82 12163 
1 82 926 
1 85 5636 
1 2525 8507 
1 91 11254 
1 91 1800 
1 91 14015 
1 2501 3073 
1 2501 2250 
1 2501 6818 
1 125 7954 
1 90 11254 
1 63 5636 
1 63 11254 
1 126 7954 
1 62 11254 
1 76 5845 
1 76 12163 
1 2503 2456 
1 2503 11553 
1 86 5636 
1 2644 10699 
1 2681 4130 
1 2681 384 
1 2680 1358 
1 2680 14990 
1 2680 2993 
1 2680 4249 
1 2691 98 
1 2691 4130 
1 2691 1358 
1 2691 384 
1 2691 1570 
1 2691 14990 
1 2691 14765 
1 2691 2993 
1 2691 4249 
1 2691 12709 
1 2691 4673 
1 2691 2065 
1 2691 9294 
1 2691 6488 
1 2691 1372 
1 2691 2701 
1 2691 12597 
1 2691 3522 
1 2709 98 
1 2709 4130 
1 2709 1358 
1 2709 384 
1 2709 1570 
1 2709 14990 
1 2709 14765 
1 2709 2993 
1 2709 4249 
1 2709 12709 
1 2709 4673 
1 2709 2065 
1 2709 9294 
1 2709 6488 
1 2709 1372 
1 2709 2701 
1 2709 12597 
1 2709 3522 
1 2507 947 
1 2507 13037 
1 2510 947 
1 2509 4457 
1 2509 12409 
1 2690 5233 
1 2676 5233 
1 2508 9272 
1 2508 7449 
1 2519 947 
1 2520 947 
1 2522 9272 
1 2692 2993 
1 2692 6488 
1 2693 2993 
1 2693 6488 
1 65 6417 
1 65 2067 
1 101 2011 
1 2708 2993 
1 2708 6488 
1 2708 4408 
1 2708 5692 
1 2708 6150 
1 2707 4408 
1 2707 5692 
1 2707 6150 
1 2707 13343 
1 2523 5766 
1 2516 4457 
1 2516 3960 
1 2500 4457 
1 2505 7449 
1 2505 5766 
1 2711 2993 
1 2711 6488 
1 2711 11598 
1 99 2067 
1 64 2067 
1 67 5233 
1 61 5233 
1 96 2011 
1 96 8587 
1 96 393 
1 2706 14280 
1 2706 14191 
1 2706 10575 
1 2706 13343 
1 2718 2993 
1 2718 6488 
1 2718 11598 
1 100 2067 
1 66 5233 
1 66 6417 
1 66 2067 
1 2719 2993 
1 2719 4408 
1 2719 5692 
1 2719 6150 
1 102 2011 
1 103 2011 
1 103 8587 
1 2720 2993 
1 2720 4408 
1 2720 5692 
1 2720 6150 
1 109 76 
1 97 8587 
1 97 393 
1 2499 11304 
1 2499 1315 
1 2506 9233 
1 108 76 
1 72 1365 
1 72 3960 
1 72 11598 
1 72 6458 
1 72 498 
1 129 76 
1 98 393 
1 98 125 
1 133 76 
1 71 11598 
1 135 76 
1 2512 9333 
1 2512 5766 
1 136 76 
1 2528 7676 
1 138 7954 
1 94 125 
1 94 15208 
1 94 6659 
1 75 1365 
1 75 3960 
1 75 11598 
1 75 6458 
1 75 498 
1 92 9333 
1 92 15208 
1 92 6659 
1 92 11254 
1 2651 11598 
1 2667 11598 
1 95 125 
1 95 15208 
1 95 6659 
1 2697 7954 
1 74 1365 
1 74 498 
1 74 3217 
1 123 7954 
1 2527 7676 
1 2513 10108 
1 2721 14280 
1 2721 14191 
1 2721 10575 
1 2721 13343 
1 791 603 
1 791 240 
1 789 240 
1 841 4349 
1 841 603 
1 841 14230 
1 841 240 
1 841 4345 
1 841 2923 
1 843 2069 
1 843 11489 
1 788 690 
1 788 3073 
0 964 1426 
0 964 935 
0 964 11887 
0 964 6448 
0 964 10484 
0 964 853 
0 962 5009 
0 962 31 
0 962 7482 
0 960 5416 
0 960 6141 
0 960 11105 
0 958 921 
0 958 2326 
0 958 2860 
0 958 719 
0 958 8714 
0 958 5379 
0 958 10583 
0 958 2001 
0 958 13448 
0 956 4685 
0 954 9107 
0 954 2308 
0 954 7398 
0 954 5539 
0 895 3301 
0 895 12105 
0 895 13155 
0 895 7487 
0 895 776 
0 895 10936 
0 895 7380 
0 895 6563 
0 895 408 
0 895 14654 
0 895 14701 
0 895 2835 
0 895 5185 
0 895 12953 
0 895 11877 
0 895 10424 
0 895 12405 
0 895 514 
0 895 1351 
0 895 14175 
0 895 11199 
0 895 11599 
0 895 4214 
0 895 10964 
0 895 13925 
0 895 5055 
0 895 186 
0 895 5431 
0 895 5085 
0 895 5667 
0 895 8207 
0 895 543 
0 895 3935 
0 895 6621 
0 895 3689 
0 895 10905 
0 895 2713 
0 895 10131 
0 895 6802 
0 895 480 
0 895 3525 
0 895 1921 
0 895 6622 
0 895 3152 
0 895 3368 
0 895 14106 
0 895 8971 
0 895 3801 
0 895 8803 
0 895 8899 
0 895 8528 
0 895 15174 
0 895 2751 
0 895 5562 
0 895 14227 
0 895 8119 
0 895 7458 
0 895 12079 
0 895 7743 
0 895 5920 
0 895 14830 
0 895 12911 
0 895 1302 
0 895 2509 
0 895 11658 
0 895 13748 
0 895 8811 
0 895 1622 
0 758 5641 
0 758 2342 
0 758 14155 
0 756 4685 
0 756 1723 
0 756 2674 
0 756 10583 
0 754 2740 
0 754 682 
0 754 1593 
0 754 10718 
0 754 12925 
0 752 1486 
0 752 5169 
0 752 4619 
0 750 5009 
0 750 31 
0 750 9837 
0 750 8944 
0 750 1509 
0 750 9113 
0 750 7678 
0 750 6053 
0 750 6466 
0 750 3486 
0 750 2565 
0 750 11887 
0 750 3688 
0 750 4886 
0 750 681 
0 749 1426 
0 749 935 
0 749 6448 
0 749 10484 
0 749 853 
0 963 9837 
0 963 8944 
0 963 1509 
0 963 9113 
0 963 7678 
0 963 6053 
0 963 6466 
0 963 3486 
0 963 2565 
0 963 11887 
0 963 3688 
0 963 4886 
0 963 9868 
0 963 681 
0 963 15471 
0 963 13297 
0 961 1486 
0 961 5169 
0 961 4619 
0 959 2740 
0 959 682 
0 959 1593 
0 959 10718 
0 959 8171 
0 959 12925 
0 957 4685 
0 957 1723 
0 957 2674 
0 957 5754 
0 957 7930 
0 957 10583 
0 957 13858 
0 955 5641 
0 955 6216 
0 955 2342 
0 955 14155 
0 759 9107 
0 759 2308 
0 759 7398 
0 759 6216 
0 759 5539 
0 757 5754 
0 757 7930 
0 757 13858 
0 755 921 
0 755 2326 
0 755 2860 
0 755 719 
0 755 8171 
0 755 8714 
0 755 5379 
0 755 2001 
0 755 13448 
0 753 5416 
0 753 6141 
0 753 11105 
0 751 7482 
0 751 9868 
0 751 15471 
0 751 13297 
0 894 11075 
0 894 7282 
0 894 3401 
0 894 12775 
0 894 13114 
0 894 9901 
0 894 14306 
0 894 11424 
0 894 2824 
0 894 12003 
0 894 2663 
0 894 12555 
0 894 3918 
0 894 8648 
0 894 951 
0 894 2804 
0 894 12783 
0 894 15272 
0 894 7025 
0 929 15654 
0 923 5182 
0 923 908 
0 923 15451 
0 921 4935 
0 921 5827 
0 921 10811 
0 921 1421 
0 921 2175 
0 793 4935 
0 793 10811 
0 793 5395 
0 793 7673 
0 793 4588 
0 793 1421 
0 793 2175 
0 791 908 
0 789 1316 
0 789 520 
0 783 6597 
0 783 55 
0 930 6597 
0 930 55 
0 924 1316 
0 924 520 
0 920 5395 
0 920 7673 
0 920 4588 
0 792 5827 
0 790 5182 
0 939 15655 
1 1698 1951 
1 1698 5305 
1 1855 8759 
1 1867 13354 
1 1867 13547 
1 1867 3815 
1 1867 11534 
1 1867 5508 
1 1867 12188 
1 1867 10432 
1 1867 124 
1 1867 1272 
1 1867 2898 
1 1867 12137 
1 1867 6697 
1 1867 5402 
1 496 1364 
1 1887 5402 
1 1854 8759 
1 1858 9775 
1 1858 539 
1 1858 6 
1 1858 2671 
1 763 173 
1 763 868 
1 763 4966 
1 763 4507 
1 763 3366 
1 763 248 
1 763 7634 
1 763 196 
1 763 2910 
1 763 1741 
1 763 627 
1 763 3327 
1 497 1364 
1 497 1663 
1 499 1663 
1 551 6709 
1 498 1364 
1 1699 14019 
1 1699 3929 
1 1699 10702 
1 552 14019 
1 655 9754 
1 655 3366 
1 655 2990 
1 655 248 
1 655 2910 
1 655 6160 
1 655 627 
1 655 3327 
1 648 892 
1 648 2452 
1 648 2878 
1 648 4867 
1 1888 8323 
1 1888 4262 
1 1877 1108 
1 1877 4060 
1 1877 4262 
1 1877 3184 
1 1877 11275 
1 1877 5924 
1 1877 9775 
1 1877 539 
1 1877 6 
1 1877 2671 
1 1835 8323 
1 1865 8323 
1 1865 4262 
1 1859 8759 
1 1859 1108 
1 1859 4060 
1 1859 4262 
1 1859 3184 
1 1859 11275 
1 1859 5924 
1 1696 14019 
1 1696 3929 
1 1886 13354 
1 1886 7493 
1 1886 13547 
1 1886 3815 
1 1886 11534 
1 1886 5508 
1 1886 12188 
1 1886 10432 
1 1886 124 
1 1886 1272 
1 1886 2898 
1 1886 12137 
1 1886 6697 
1 1886 5402 
1 1876 8759 
1 1876 4060 
1 1876 9775 
1 501 1998 
1 1690 171 
1 1690 770 
1 1690 3785 
1 1686 770 
1 1686 3785 
1 1686 6720 
1 566 770 
1 511 8931 
1 511 3375 
1 512 3375 
1 510 8931 
1 508 1120 
1 509 1120 
1 507 1120 
1 543 13090 
1 1687 4555 
1 1687 770 
1 1687 1933 
1 1687 5305 
1 548 13090 
1 505 1998 
1 505 2154 
1 1872 124 
1 504 1998 
1 504 2154 
1 504 7774 
1 503 1998 
1 503 2154 
1 503 7774 
1 1688 5305 
1 502 1998 
1 502 2154 
1 502 7774 
1 558 6709 
1 558 5305 
1 1871 124 
1 1870 7493 
1 1870 124 
1 1869 7493 
1 1869 11534 
1 1869 124 
1 1868 13354 
1 1868 7493 
1 1868 13547 
1 1868 3815 
1 1868 11534 
1 1868 12188 
1 1868 124 
1 1893 124 
1 481 1663 
1 1885 7493 
1 480 1663 
1 1834 8323 
1 649 892 
1 649 2452 
1 649 2878 
1 656 892 
1 656 6160 
1 657 892 
1 657 2452 
1 657 2878 
1 657 4867 
1 764 868 
1 764 4507 
1 513 3375 
0 953 5167 
0 953 9651 
0 953 9262 
0 951 14777 
0 943 15652 
0 941 15601 
0 761 9651 
0 761 9262 
0 952 7368 
0 760 5167 
0 919 11929 
0 919 4584 
0 919 8305 
0 919 10170 
0 919 247 
0 919 242 
0 919 7983 
0 917 7147 
0 917 9529 
0 917 1401 
0 917 11413 
0 917 7842 
0 917 587 
0 915 2766 
0 915 402 
0 913 2720 
0 913 158 
0 911 12483 
0 911 12561 
0 911 1218 
0 911 367 
0 906 1954 
0 906 5664 
0 905 12780 
0 904 2094 
0 902 2375 
0 902 466 
0 901 1265 
0 900 3904 
0 900 1782 
0 889 4560 
0 889 4197 
0 888 4466 
0 888 8286 
0 888 688 
0 888 7028 
0 888 6161 
0 888 1508 
0 888 9790 
0 888 8321 
0 888 2074 
0 888 9943 
0 888 13347 
0 886 92 
0 886 2095 
0 886 33 
0 886 1546 
0 886 686 
0 886 491 
0 886 430 
0 886 572 
0 886 3781 
0 886 1062 
0 886 2379 
0 803 12561 
0 803 1218 
0 803 367 
0 801 2720 
0 801 158 
0 799 15273 
0 799 11828 
0 799 402 
0 797 14826 
0 797 7147 
0 797 9529 
0 797 1401 
0 797 11413 
0 797 7842 
0 797 587 
0 795 11929 
0 795 4584 
0 795 8305 
0 795 10170 
0 795 247 
0 795 2135 
0 795 242 
0 795 7983 
0 795 9185 
0 743 1265 
0 743 1782 
0 742 1265 
0 742 466 
0 741 2375 
0 740 2094 
0 738 12780 
0 738 1954 
0 738 5664 
0 734 7983 
0 674 367 
0 362 7983 
0 353 367 
0 918 2135 
0 918 9185 
0 916 14826 
0 914 15273 
0 914 11828 
0 910 12483 
0 885 178 
0 885 362 
0 885 1256 
0 885 375 
0 885 1052 
0 885 145 
0 885 1194 
0 885 4925 
0 885 144 
0 885 132 
0 885 15103 
0 885 116 
0 885 161 
0 885 725 
0 885 201 
0 885 231 
0 885 1071 
0 885 1101 
0 885 2010 
0 885 482 
0 885 493 
0 885 381 
0 885 4714 
0 885 92 
0 885 2095 
0 885 33 
0 885 1546 
0 885 686 
0 885 491 
0 885 430 
0 885 572 
0 885 3781 
0 885 1062 
0 885 2670 
0 885 2379 
0 885 4197 
0 853 12548 
0 853 11769 
0 851 1256 
0 851 375 
0 851 1052 
0 851 145 
0 851 1194 
0 851 4925 
0 851 144 
0 851 132 
0 851 201 
0 851 231 
0 851 1071 
0 851 1101 
0 851 2010 
0 851 482 
0 851 493 
0 851 381 
0 851 4714 
0 851 2095 
0 851 33 
0 851 1546 
0 851 686 
0 851 491 
0 851 430 
0 851 572 
0 851 3781 
0 851 1062 
0 851 2670 
0 851 2379 
0 798 2766 
0 884 4701 
0 850 178 
0 850 362 
0 850 116 
0 850 161 
0 850 725 
0 850 92 
0 744 3904 
1 791 9241 
1 791 81 
1 789 9241 
1 789 81 
1 789 1755 
1 789 6321 
1 841 9241 
1 841 81 
1 841 4082 
1 841 1755 
1 841 6321 
1 2258 3573 
1 2274 3573 
1 2287 3573 
1 842 4082 
0 967 281 
0 967 3712 
0 966 12193 
0 966 12727 
0 966 3196 
0 966 13280 
0 966 12756 
0 966 7378 
0 966 474 
0 966 7746 
0 966 7293 
0 965 14498 
0 965 2195 
0 965 10739 
0 965 836 
0 965 1068 
0 965 4835 
0 965 13953 
0 965 5341 
0 965 11150 
0 965 7746 
0 965 2297 
0 965 7293 
0 965 7027 
0 965 5972 
0 965 1606 
0 965 83 
0 963 3776 
0 963 4516 
0 963 15355 
0 963 15371 
0 963 14926 
0 963 13386 
0 963 1381 
0 963 1175 
0 963 845 
0 963 9842 
0 963 4719 
0 963 3050 
0 963 3355 
0 963 12457 
0 963 2927 
0 963 4223 
0 963 1240 
0 963 6036 
0 963 7548 
0 963 1352 
0 961 15302 
0 961 13512 
0 961 4218 
0 961 13374 
0 961 6207 
0 961 5830 
0 961 4565 
0 961 11910 
0 961 3882 
0 961 1136 
0 961 6541 
0 959 10868 
0 959 14486 
0 959 10586 
0 959 15460 
0 959 8750 
0 959 10014 
0 959 3973 
0 959 741 
0 959 3070 
0 959 9050 
0 959 5072 
0 959 1543 
0 959 6369 
0 959 1550 
0 959 2968 
0 959 2450 
0 959 6008 
0 959 6225 
0 959 9673 
0 959 687 
0 959 5479 
0 959 6886 
0 957 7182 
0 957 14909 
0 957 7989 
0 957 14788 
0 957 11697 
0 957 13279 
0 957 1018 
0 957 7064 
0 957 1588 
0 957 13905 
0 957 11663 
0 957 3901 
0 955 8995 
0 955 9829 
0 955 1694 
0 955 9006 
0 955 11565 
0 955 1926 
0 899 487 
0 898 5819 
0 898 10592 
0 898 4899 
0 898 10216 
0 898 1390 
0 898 1182 
0 893 4812 
0 893 9869 
0 893 11972 
0 893 4522 
0 893 5069 
0 893 13197 
0 893 1012 
0 893 1503 
0 893 8059 
0 893 1347 
0 893 12691 
0 893 2773 
0 892 9168 
0 892 2337 
0 892 5314 
0 892 769 
0 892 4753 
0 892 3963 
0 892 7196 
0 892 7060 
0 892 5524 
0 892 6531 
0 892 5941 
0 891 8745 
0 891 14119 
0 891 5487 
0 891 15277 
0 891 12365 
0 891 8752 
0 891 12730 
0 891 7444 
0 891 4633 
0 887 933 
0 812 12727 
0 759 9829 
0 759 1694 
0 759 9006 
0 759 1926 
0 757 14788 
0 757 11697 
0 757 13279 
0 757 7064 
0 757 1588 
0 757 13905 
0 757 11663 
0 757 3901 
0 755 10868 
0 755 10586 
0 755 15460 
0 755 8750 
0 755 3973 
0 755 741 
0 755 3070 
0 755 9050 
0 755 5072 
0 755 1543 
0 755 6369 
0 755 1550 
0 755 2968 
0 755 6008 
0 755 6225 
0 755 9673 
0 755 687 
0 755 5479 
0 755 6886 
0 753 15302 
0 753 13512 
0 753 4218 
0 753 10014 
0 753 13374 
0 753 6207 
0 753 5830 
0 753 11910 
0 753 3882 
0 753 2450 
0 753 1136 
0 753 6541 
0 751 15371 
0 751 14926 
0 751 4565 
0 751 1381 
0 751 1175 
0 751 845 
0 751 9842 
0 751 3050 
0 751 3355 
0 751 12457 
0 751 2927 
0 751 4223 
0 751 1240 
0 751 6036 
0 751 7548 
0 751 1352 
0 747 4835 
0 747 474 
0 747 11150 
0 747 7746 
0 747 2297 
0 747 7293 
0 747 5972 
0 747 1606 
0 747 83 
0 746 3712 
0 746 1390 
0 746 1182 
0 745 281 
0 745 5819 
0 745 10592 
0 745 4899 
0 744 2834 
0 744 4319 
0 744 3078 
0 744 487 
0 737 12193 
0 737 12727 
0 737 3196 
0 737 14498 