ITEM: TIMESTEP
20000000
ITEM: NUMBER OF ENTRIES
1975
ITEM: BOX BOUNDS ff ff ff
-0.01 0.45
-0.15 0.15
-0.08 0.1
ITEM: ENTRIES c_pwc[1] c_pwc[2] c_pwc[3] 
0 938 5930 
0 932 5044 
0 930 503 
0 930 474 
0 928 2460 
0 784 2460 
0 782 503 
0 782 474 
0 780 5044 
0 828 1812 
0 871 1812 
0 944 438 
0 942 1895 
0 940 3780 
0 774 2073 
0 772 3780 
0 770 1895 
0 768 438 
0 938 2073 
0 926 3359 
0 924 3427 
0 924 32 
0 924 1699 
0 922 1859 
0 922 3866 
0 922 6162 
0 922 5496 
0 922 2284 
0 922 7298 
0 922 5645 
0 920 681 
0 792 681 
0 792 5496 
0 790 1859 
0 790 3866 
0 790 6162 
0 790 2284 
0 790 7298 
0 790 5645 
0 788 3427 
0 788 32 
0 788 1699 
0 786 3359 
0 952 984 
0 952 601 
0 950 1353 
0 950 6002 
0 950 4317 
0 948 6011 
0 946 4398 
0 766 4398 
0 764 6011 
0 762 1353 
0 762 6002 
0 762 4317 
0 760 984 
0 760 601 
0 918 241 
0 918 6477 
0 918 904 
0 916 471 
0 916 3591 
0 916 1030 
0 916 824 
0 916 1290 
0 916 5851 
0 916 3596 
0 916 5654 
0 914 1030 
0 914 1989 
0 914 2798 
0 914 2065 
0 914 7188 
0 914 5107 
0 914 5186 
0 912 1989 
0 912 5971 
0 912 7565 
0 912 5822 
0 800 1989 
0 800 2065 
0 800 5971 
0 800 7565 
0 800 5822 
0 800 5186 
0 798 1030 
0 798 2798 
0 798 7188 
0 798 5107 
0 796 471 
0 796 3591 
0 796 824 
0 796 1290 
0 796 5851 
0 796 6477 
0 796 3596 
0 796 5654 
0 794 241 
0 794 904 
0 960 7793 
0 960 4324 
0 958 2391 
0 958 1466 
0 956 2091 
0 956 4824 
0 954 1439 
0 954 1377 
0 758 1439 
0 758 1377 
0 756 2091 
0 756 4824 
0 754 2391 
0 754 1466 
0 752 4324 
0 861 4510 
0 822 4510 
0 850 1298 
0 850 5109 
0 850 5660 
0 850 2063 
0 850 502 
0 850 1154 
0 850 1970 
0 850 87 
0 850 238 
0 850 119 
0 850 93 
0 850 408 
0 850 4287 
0 850 5573 
0 850 1739 
0 850 5235 
0 850 1152 
0 850 4925 
0 850 3653 
0 850 2669 
0 850 977 
0 850 752 
0 850 6845 
0 850 160 
0 850 6095 
0 850 534 
0 850 15 
0 850 13 
0 910 818 
0 909 818 
0 885 2063 
0 885 502 
0 885 1154 
0 885 119 
0 885 93 
0 885 408 
0 885 4287 
0 885 5235 
0 885 1152 
0 885 4925 
0 885 3653 
0 885 977 
0 885 6845 
0 885 160 
0 885 6095 
0 885 534 
0 804 818 
0 802 2262 
0 911 2262 
0 884 1298 
0 884 5109 
0 884 5660 
0 884 1970 
0 884 87 
0 884 238 
0 884 5573 
0 884 1739 
0 884 6704 
0 884 2669 
0 884 752 
0 884 15 
0 884 13 
0 854 6148 
0 912 796 
0 800 796 
0 908 430 
0 908 1469 
0 855 7278 
0 855 7107 
0 855 4394 
0 855 3199 
0 736 347 
0 736 1469 
0 962 430 
0 962 2488 
0 962 5937 
0 962 7918 
0 962 5287 
0 962 602 
0 895 1469 
0 848 2299 
0 752 6373 
0 750 430 
0 750 2488 
0 750 5937 
0 750 5287 
0 750 602 
0 894 4458 
0 894 7113 
0 894 2299 
0 960 6373 
0 884 2403 
0 884 5061 
0 884 2080 
0 884 6368 
0 884 2718 
0 884 1478 
0 884 7562 
0 884 7291 
0 884 6663 
0 884 7873 
0 884 5538 
0 884 3968 
0 884 267 
0 884 2792 
0 884 7485 
0 884 4472 
0 884 3453 
0 884 7348 
0 884 3622 
0 884 5589 
0 884 7499 
0 884 5655 
0 884 6340 
0 854 2504 
0 854 3916 
0 854 3146 
0 854 5888 
0 854 7385 
0 854 3051 
0 854 4260 
0 854 3560 
0 854 5325 
0 854 4187 
0 854 7892 
0 854 5583 
0 854 4433 
0 854 1001 
0 854 6554 
0 854 5968 
0 854 6013 
0 854 5061 
0 854 6440 
0 854 828 
0 854 5995 
0 854 3449 
0 854 4826 
0 854 2001 
0 854 1790 
0 854 7595 
0 854 1183 
0 854 3841 
0 854 6366 
0 854 5270 
0 854 6811 
0 854 6905 
0 854 2441 
0 854 7868 
0 854 7703 
0 854 3964 
0 854 300 
0 854 4127 
0 854 6154 
0 854 2782 
0 854 6368 
0 854 7128 
0 854 5658 
0 854 4444 
0 854 5590 
0 854 6944 
0 854 1709 
0 854 7469 
0 854 7692 
0 854 4268 
0 854 1691 
0 854 2753 
0 854 6424 
0 853 1365 
0 853 1946 
0 853 5245 
0 853 4501 
0 853 6017 
0 853 3050 
0 853 2770 
0 853 322 
0 853 7057 
0 853 3559 
0 853 6340 
0 853 5548 
0 850 2403 
0 850 7291 
0 852 3934 
0 852 5847 
0 852 2773 
0 852 199 
0 852 2582 
0 852 6674 
0 852 6545 
0 852 3245 
0 852 5697 
0 852 3770 
0 852 1530 
0 852 5872 
0 852 5632 
0 852 391 
0 852 6996 
0 852 3976 
0 852 851 
0 852 7302 
0 852 6698 
0 852 1003 
0 852 2975 
0 852 145 
0 855 2230 
0 894 6701 
0 894 253 
0 894 4262 
0 894 2992 
0 894 1949 
0 894 5795 
0 894 3769 
0 894 6986 
0 894 6672 
0 894 1521 
0 894 5428 
0 894 5653 
0 894 4841 
0 894 2779 
0 894 3921 
0 894 4789 
0 894 4857 
0 894 6478 
0 894 4719 
0 894 3517 
0 894 1707 
0 855 6350 
0 855 6151 
0 855 4034 
0 855 460 
0 855 3300 
0 855 574 
0 855 6428 
0 855 2264 
0 855 798 
0 855 3354 
0 855 6512 
0 855 6607 
0 855 3212 
0 855 7605 
0 855 3124 
0 855 6069 
0 855 1194 
0 855 7050 
0 855 1085 
0 855 6360 
0 855 5731 
0 855 4964 
0 855 4448 
0 855 6701 
0 855 6979 
0 855 3820 
0 855 5081 
0 854 4295 
0 854 1091 
0 854 3861 
0 854 6481 
0 854 1250 
0 854 6040 
0 854 1128 
0 854 6669 
0 854 3360 
0 936 4590 
0 932 1747 
0 932 1014 
0 930 3738 
0 786 258 
0 780 1747 
0 783 3738 
0 781 1014 
0 926 258 
0 944 597 
0 944 233 
0 942 7210 
0 768 597 
1 2687 1284 
1 2702 1151 
1 2702 1979 
1 2703 1151 
1 2703 1979 
1 2725 1151 
1 2725 953 
1 2725 7547 
1 2725 1979 
1 2725 1284 
1 2706 7337 
1 2706 4013 
1 2720 7337 
1 2726 7547 
1 2701 1151 
1 2701 953 
1 2701 7547 
1 2701 1979 
1 2701 1284 
1 2717 7730 
1 2717 5375 
1 2686 1284 
1 2721 7337 
1 2721 4013 
1 2722 7337 
1 2722 4013 
1 2698 7730 
1 2698 5375 
1 2698 7337 
1 2698 4013 
0 926 1752 
0 922 4612 
0 922 4281 
0 922 1882 
0 920 139 
0 920 6912 
0 792 2307 
0 790 4612 
0 790 3971 
0 923 3971 
0 921 2307 
0 793 139 
0 793 6912 
0 791 4281 
0 791 1882 
0 787 1752 
0 952 4573 
0 950 5 
0 950 1759 
0 764 1759 
0 763 5 
0 763 1759 
0 761 4573 
1 138 4094 
1 2677 5877 
1 2519 1124 
1 65 341 
1 67 341 
1 101 6510 
1 61 4777 
1 2690 468 
1 96 71 
1 96 6510 
1 2508 1894 
1 2508 2026 
1 99 341 
1 100 341 
1 2509 6249 
1 60 4777 
1 102 6510 
1 66 468 
1 66 341 
1 2522 1894 
1 103 4880 
1 103 6510 
1 97 71 
1 97 4880 
1 93 71 
1 2516 872 
1 72 469 
1 2523 1611 
1 98 71 
1 98 4880 
1 94 4880 
1 2505 1611 
1 2505 2026 
1 92 1700 
1 92 549 
1 92 3700 
1 2500 872 
1 75 3112 
1 75 469 
1 95 1700 
1 95 3700 
1 73 230 
1 73 3411 
1 74 3112 
1 74 469 
1 74 230 
1 90 549 
1 91 1700 
1 91 549 
1 91 3700 
1 87 6353 
1 63 549 
1 63 3700 
1 2681 2742 
1 78 3112 
1 78 230 
1 78 3411 
1 62 549 
1 62 3700 
1 76 3411 
1 2528 7204 
1 2512 1611 
1 77 230 
1 77 3411 
1 81 305 
1 85 174 
1 85 6353 
1 2499 5092 
1 2499 7204 
1 2499 517 
1 2527 7204 
1 83 230 
1 82 305 
1 86 174 
1 86 6353 
1 80 174 
1 84 174 
1 79 174 
1 2525 356 
1 2709 6222 
1 2709 1149 
1 2709 3908 
1 2709 784 
1 2709 640 
1 2709 2360 
1 2709 5891 
1 2709 5927 
1 2709 2742 
1 2709 5877 
1 2709 7373 
1 2502 7204 
1 2503 3398 
1 2503 4661 
1 2504 356 
1 2691 6222 
1 2691 1149 
1 2691 3908 
1 2691 784 
1 2691 640 
1 2691 2360 
1 2691 5891 
1 2691 5927 
1 2691 2742 
1 2691 5877 
1 2691 7373 
1 131 468 
1 2501 5092 
1 2501 356 
1 2501 3398 
1 130 4744 
1 139 4094 
1 787 1684 
1 787 1848 
1 787 3822 
1 787 120 
1 787 5613 
1 137 4094 
1 842 1684 
1 842 1848 
1 842 3822 
1 842 5613 
1 842 2149 
1 842 126 
1 842 2850 
1 2710 468 
1 116 1700 
1 2664 3112 
1 2680 1149 
1 2680 3908 
1 2680 640 
1 2680 5891 
1 118 1700 
1 2668 3112 
1 117 1700 
1 2692 468 
1 120 4094 
1 2712 6353 
1 127 1700 
1 2693 468 
1 2708 6422 
1 2708 3508 
1 2708 4969 
1 2708 3900 
1 2708 4744 
1 2708 1498 
1 2647 1280 
1 2646 1280 
1 2645 1280 
1 2707 6422 
1 2707 1498 
1 2707 5678 
1 2718 3508 
1 2718 4969 
1 2718 3900 
1 2718 4744 
1 2672 1280 
1 2644 1280 
1 2719 6422 
1 2719 3508 
1 2719 4969 
1 2719 3900 
1 2719 4744 
1 2719 1498 
1 841 3135 
1 841 2149 
1 841 3594 
1 841 126 
1 841 2850 
1 788 120 
1 2706 4550 
1 2706 5678 
1 2720 6422 
1 2720 3508 
1 2720 4969 
1 2720 3900 
1 2720 4744 
1 2720 1498 
1 2716 1280 
1 2696 1700 
1 2721 4550 
1 2721 5678 
1 2722 4550 
1 2722 5678 
1 2698 4550 
1 2723 1280 
1 2724 1280 
0 916 6575 
0 912 2489 
0 800 2489 
0 798 2150 
0 796 3978 
0 917 3978 
0 915 2150 
0 797 6575 
0 960 2258 
0 960 5094 
0 958 5269 
0 956 1384 
0 954 3637 
0 954 4137 
0 758 3690 
0 756 3986 
0 756 3460 
0 754 2258 
0 754 2430 
0 961 1232 
0 959 2258 
0 959 2430 
0 959 7960 
0 959 3519 
0 957 3986 
0 957 3460 
0 955 3690 
0 955 1384 
0 955 4137 
0 759 3637 
0 759 4137 
0 757 1384 
0 755 5269 
0 755 3519 
0 753 5094 
0 753 1232 
1 1895 1718 
1 1895 1474 
1 1895 732 
1 1895 4293 
1 1895 3115 
1 1895 3829 
1 1895 7125 
1 1894 3028 
1 1894 2502 
1 1894 1771 
1 1850 2815 
1 1850 388 
1 1857 1718 
1 1857 1474 
1 1857 732 
1 1857 4698 
1 1857 4293 
1 1857 3115 
1 1857 2164 
1 1857 364 
1 1857 4632 
1 1857 3829 
1 1857 3028 
1 1857 2502 
1 1857 7125 
1 1857 1281 
1 1857 1421 
1 1857 5719 
1 1857 1771 
1 1857 4756 
1 1857 2815 
1 1857 5539 
1 1857 645 
1 1857 1931 
1 1857 5156 
1 1857 745 
1 1857 2123 
1 1857 21 
1 1857 3172 
1 1857 930 
1 1857 337 
1 1857 902 
1 1857 1020 
1 1857 381 
1 1857 307 
1 1857 7344 
1 1857 3674 
1 1857 3331 
1 1857 4076 
1 1857 733 
1 1857 4061 
1 1875 1718 
1 1875 1474 
1 1875 732 
1 1875 4698 
1 1875 4293 
1 1875 3115 
1 1875 2164 
1 1875 364 
1 1875 4632 
1 1875 3829 
1 1875 3028 
1 1875 2502 
1 1875 7125 
1 1875 1281 
1 1875 1421 
1 1875 5719 
1 1875 1771 
1 1875 4756 
1 1875 2815 
1 1875 388 
1 1875 5539 
1 1875 1826 
1 1875 645 
1 1875 1931 
1 1875 5156 
1 1875 745 
1 1875 2123 
1 1875 21 
1 1875 3172 
1 1875 930 
1 1875 337 
1 1875 902 
1 1875 381 
1 1875 307 
1 1875 7344 
1 1875 3674 
1 1875 4076 
1 1875 733 
1 1856 388 
1 1856 1826 
1 1862 7670 
1 1689 5365 
1 1864 4756 
1 1864 3331 
1 1864 3070 
1 1864 4061 
1 1864 7723 
1 1863 3070 
1 1863 7723 
1 1881 4756 
1 1881 3070 
1 1881 7723 
1 1879 1020 
1 1879 3331 
1 1879 4061 
1 1879 5149 
1 1692 5365 
1 1692 1190 
1 1880 4756 
1 1880 3331 
1 1880 4061 
1 562 1190 
1 514 3222 
1 514 5305 
1 513 5305 
1 516 5305 
1 515 3222 
1 515 5305 
1 1691 3303 
1 1861 7670 
1 477 6312 
1 477 3755 
1 536 414 
1 536 7723 
1 1874 7670 
1 1860 7670 
1 528 7723 
1 1882 7723 
1 1883 7723 
1 1889 7670 
1 479 6312 
1 479 3755 
1 560 268 
1 1890 7670 
1 484 5149 
1 485 3755 
1 485 5149 
1 1822 3316 
1 1821 3316 
1 1846 3316 
1 1823 3316 
1 486 5149 
1 1891 7670 
1 1824 7723 
1 1824 3316 
1 1847 7723 
1 1847 3316 
1 559 268 
1 1848 3316 
1 1849 3316 
1 1694 268 
1 488 150 
1 490 150 
1 491 5760 
1 491 1622 
1 492 5760 
1 493 5760 
1 493 190 
1 495 1622 
1 495 190 
1 1693 1643 
1 1693 1423 
1 1693 1926 
1 494 1622 
1 494 190 
1 1697 1926 
1 537 414 
1 538 414 
1 496 1622 
1 497 1622 
1 1696 1423 
0 910 4450 
0 910 4572 
0 910 1972 
0 910 3340 
0 909 1972 
0 885 2233 
0 885 1942 
0 885 3244 
0 885 696 
0 885 7545 
0 885 4757 
0 885 926 
0 885 906 
0 885 4703 
0 885 2378 
0 885 3685 
0 885 2265 
0 885 2494 
0 885 1969 
0 885 746 
0 885 2477 
0 885 6629 
0 885 4883 
0 885 846 
0 885 399 
0 885 614 
0 885 694 
0 885 2739 
0 885 969 
0 885 4428 
0 885 790 
0 885 60 
0 885 655 
0 885 3682 
0 885 166 
0 885 459 
0 885 3626 
0 885 826 
0 885 776 
0 885 97 
0 885 4165 
0 885 2096 
0 885 1972 
0 885 1081 
0 885 2346 
0 885 1337 
0 885 2743 
0 885 2902 
0 885 5642 
0 885 100 
0 885 2867 
0 885 2547 
0 885 2032 
0 885 301 
0 885 260 
0 885 2 
0 885 17 
0 885 436 
0 885 971 
0 885 2655 
0 885 450 
0 885 7914 
0 885 877 
0 885 903 
0 885 1549 
0 885 651 
0 885 892 
0 885 5143 
0 885 1311 
0 885 4836 
0 885 6548 
0 885 2530 
0 885 172 
0 885 340 
0 885 405 
0 885 1309 
0 885 231 
0 885 1289 
0 885 55 
0 885 1613 
0 885 505 
0 885 280 
0 885 193 
0 885 6452 
0 885 6261 
0 885 1453 
0 804 1972 
0 804 3340 
0 802 4641 
0 802 650 
0 911 4641 
0 911 256 
0 911 650 
0 911 3163 
0 803 4450 
0 803 4572 
0 803 256 
0 803 3163 
0 803 3340 
0 801 4942 
0 850 2233 
0 850 1942 
0 850 3244 
0 850 696 
0 850 7545 
0 850 4757 
0 850 926 
0 850 906 
0 850 4703 
0 850 2378 
0 850 3685 
0 850 2265 
0 850 2494 
0 850 1969 
0 850 746 
0 850 2477 
0 850 6629 
0 850 4883 
0 850 846 
0 850 399 
0 850 614 
0 850 694 
0 850 2739 
0 850 969 
0 850 4428 
0 850 790 
0 850 60 
0 850 655 
0 850 3682 
0 850 166 
0 850 459 
0 850 3626 
0 850 826 
0 850 776 
0 850 97 
0 850 4165 
0 850 1972 
0 850 1081 
0 850 2346 
0 850 1337 
0 850 2743 
0 850 2902 
0 850 5642 
0 850 100 
0 850 2867 
0 850 2547 
0 850 2032 
0 850 260 
0 850 2 
0 850 17 
0 850 436 
0 850 971 
0 850 2655 
0 850 450 
0 850 7914 
0 850 877 
0 850 5143 
0 850 1311 
0 850 4836 
0 850 6548 
0 850 2530 
0 850 172 
0 850 1289 
0 850 55 
0 850 1613 
0 850 505 
0 850 280 
0 851 2096 
0 851 301 
0 851 903 
0 851 1549 
0 851 651 
0 851 892 
0 851 340 
0 851 405 
0 851 1309 
0 851 231 
0 851 193 
0 851 6452 
0 851 6261 
0 851 1453 
0 912 4942 
0 912 4641 
0 964 4205 
0 964 2672 
0 964 1980 
0 962 2069 
0 962 255 
0 895 882 
0 895 7106 
0 895 4488 
0 895 3730 
0 895 6143 
0 895 3710 
0 895 3217 
0 750 2069 
0 750 4205 
0 750 952 
0 750 2672 
0 749 1980 
0 963 4205 
0 963 952 
0 751 255 
0 908 1109 
0 736 1109 
1 1894 7774 
1 1896 7774 
1 1897 7774 
1 1864 7774 
1 1863 7774 
1 1881 7774 
0 853 6052 
0 853 3947 
0 853 197 
0 853 6638 
0 853 3219 
0 853 6462 
0 853 6859 
0 853 781 
0 853 6072 
0 853 4938 
0 853 4936 
0 853 2683 
0 853 3536 
0 853 3455 
0 853 7219 
0 853 4036 
0 853 2905 
0 853 1950 
0 853 1978 
0 853 4718 
0 853 2197 
0 853 6291 
0 853 4743 
0 853 5681 
0 853 6597 
0 853 7619 
0 853 6754 
0 853 5611 
0 853 6415 
0 853 104 
0 853 3036 
0 853 6792 
0 853 5197 
0 853 6729 
0 853 7394 
0 853 6647 
0 851 2066 
0 851 742 
0 851 523 
0 851 646 
0 851 1587 
0 851 4491 
0 851 1002 
0 851 1397 
0 851 229 
0 851 207 
0 884 6716 
0 884 1135 
0 884 831 
0 884 14 
0 884 4812 
0 884 6214 
0 884 2774 
0 884 5561 
0 884 4521 
0 884 2516 
0 884 1148 
0 884 3924 
0 884 6072 
0 884 669 
0 884 7627 
0 884 6288 
0 884 7928 
0 884 6949 
0 884 2191 
0 884 3659 
0 884 3204 
0 884 3628 
0 884 1552 
0 884 5289 
0 884 207 
0 885 2066 
0 885 742 
0 885 523 
0 885 646 
0 885 1587 
0 885 6884 
0 885 4491 
0 885 1002 
0 885 1397 
0 885 3215 
0 885 4723 
0 885 229 
0 885 6473 
0 850 831 
0 850 14 
0 852 5369 
0 852 3102 
0 809 344 
0 894 2533 
0 894 7148 
0 894 5524 
0 894 3016 
0 894 433 
0 894 2383 
0 894 6445 
0 894 6385 
0 894 6687 
0 894 5199 
0 894 6538 
0 894 6358 
0 894 5189 
0 894 1902 
0 894 6255 
0 894 673 
0 894 2220 
0 894 2170 
0 852 344 
0 849 2170 
0 895 1588 
0 895 3550 
0 895 2803 
0 895 5558 
0 895 5824 
0 895 6158 
0 895 2445 
0 895 1897 
0 895 4877 
0 895 5350 
0 895 3676 
0 895 6829 
0 895 1519 
0 895 3960 
0 853 164 
0 853 3869 
0 931 2726 
0 934 7856 
1 2258 3067 
1 2274 3067 
1 2287 3067 
1 2276 3067 
1 2275 3067 
1 2289 3067 
0 945 731 
0 945 155 
0 769 155 
0 927 59 
0 923 218 
0 921 1352 
0 921 6130 
0 921 2519 
0 793 3578 
0 793 1352 
0 793 6130 
0 793 2519 
0 791 218 
0 787 59 
0 926 5956 
0 920 3578 
1 2274 4790 
1 2274 6023 
1 2287 4790 
1 2287 6023 
0 953 7426 
0 953 7629 
0 953 1509 
0 953 6803 
0 953 7420 
0 947 470 
0 761 3983 
0 952 3983 
0 760 7426 
0 760 7629 
0 760 1509 
0 760 6803 
0 760 7420 
1 791 788 
1 789 788 
1 841 1731 
1 841 788 
1 842 1731 
0 919 3799 
0 919 1170 
0 917 5949 
0 917 223 
0 917 480 
0 797 5949 
0 797 223 
0 797 480 
0 795 3799 
0 795 1170 
0 961 7728 
0 961 6192 
0 961 246 
0 961 526 
0 961 7464 
0 961 5668 
0 961 989 
0 961 5687 
0 961 2903 
0 959 1026 
0 959 5206 
0 959 1424 
0 959 2416 
0 959 1636 
0 959 4349 
0 959 1137 
0 959 43 
0 959 591 
0 959 652 
0 959 4926 
0 959 1841 
0 959 4258 
0 959 111 
0 959 4128 
0 959 2860 
0 959 705 
0 959 1107 
0 959 410 
0 959 621 
0 957 5552 
0 957 400 
0 957 3225 
0 957 2760 
0 957 1544 
0 957 6064 
0 957 401 
0 957 1772 
0 957 2204 
0 955 687 
0 955 7246 
0 955 6812 
0 955 6817 
0 955 1313 
0 955 1218 
0 955 2760 
0 955 825 
0 955 5309 
0 955 3972 
0 955 2330 
0 759 687 
0 759 7246 
0 759 6812 
0 759 6817 
0 759 1313 
0 759 1218 
0 759 5309 
0 759 3972 
0 759 2330 
0 757 5552 
0 757 400 
0 757 3225 
0 757 2760 
0 757 1544 
0 757 6064 
0 757 1772 
0 757 2204 
0 755 1026 
0 755 1424 
0 755 2416 
0 755 4060 
0 755 1137 
0 755 43 
0 755 591 
0 755 1841 
0 755 4258 
0 755 111 
0 755 2860 
0 755 705 
0 755 1107 
0 755 410 
0 755 621 
0 753 7728 
0 753 6192 
0 753 246 
0 753 526 
0 753 7464 
0 753 5668 
0 753 989 
0 753 5687 
0 753 2903 
0 758 825 
0 756 401 
0 754 5206 
0 754 1636 
0 754 4349 
0 754 652 
0 754 4926 
0 754 4128 
0 760 3972 
1 1690 5297 
1 565 198 
1 511 1593 
1 566 4273 
1 1686 5297 
1 510 1593 
1 508 1593 
1 508 42 
1 507 1328 
1 507 42 
1 543 1328 
1 1687 565 
1 1687 1235 
1 1687 4273 
1 548 1328 
1 505 42 
1 505 366 
1 504 366 
1 557 4273 
1 502 5955 
1 502 142 
1 1688 565 
1 1688 1235 
1 1869 3104 
1 1870 3104 
1 483 6982 
1 483 5955 
1 558 6982 
1 558 1235 
1 1868 3152 
1 1868 7724 
1 1868 2543 
1 1868 3104 
1 482 5955 
1 1829 3152 
1 1893 3104 
1 1885 3152 
1 1834 3152 
1 481 6982 
1 481 5955 
1 1835 3152 
1 1698 1235 
1 1698 4207 
1 1836 3152 
1 498 3936 
1 499 5955 
1 496 3936 
1 497 3936 
1 551 6982 
1 1699 424 
1 1865 4130 
1 1867 7724 
1 1867 2543 
1 1867 3413 
1 1867 3104 
1 1867 5017 
1 1859 142 
1 1859 1411 
1 1859 4043 
1 1859 4130 
1 1887 3152 
1 1886 7724 
1 1886 2543 
1 1886 3413 
1 1886 3104 
1 1886 5017 
1 1888 3152 
1 1888 4130 
1 1696 924 
1 1876 142 
1 1876 1411 
1 1876 643 
1 1858 643 
1 655 2474 
1 1877 1411 
1 1877 4043 
1 1877 643 
1 1877 4130 
1 763 2474 
1 1830 3152 
1 1837 3152 
0 911 3989 
0 911 323 
0 911 623 
0 911 3644 
0 911 5231 
0 911 5676 
0 905 6981 
0 905 2671 
0 903 2678 
0 903 1440 
0 902 2397 
0 902 5499 
0 890 5657 
0 886 217 
0 803 3989 
0 803 5231 
0 803 5676 
0 801 10 
0 742 5499 
0 741 2397 
0 740 1440 
0 738 2671 
0 885 41 
0 885 217 
0 802 323 
0 802 623 
0 802 3644 
0 850 41 
0 850 217 
0 889 2113 
0 817 2113 
0 811 5657 
0 912 10 
0 912 323 
0 912 623 
0 967 1865 
0 966 7326 
0 966 7164 
0 965 4294 
0 965 7164 
0 965 3223 
0 965 850 
0 963 1260 
0 963 568 
0 963 5601 
0 963 2793 
0 963 6826 
0 963 38 
0 963 7425 
0 963 2423 
0 963 2637 
0 963 604 
0 963 261 
0 963 911 
0 963 1590 
0 963 2268 
0 899 3461 
0 893 5984 
0 892 4677 
0 751 1260 
0 751 5601 
0 751 2793 
0 751 6826 
0 751 7425 
0 751 2423 
0 751 2637 
0 751 604 
0 751 911 
0 751 1590 
0 751 2268 
0 747 7164 
0 747 3223 
0 747 850 
0 746 1865 
0 744 3461 
0 744 642 
0 737 7326 
0 737 4294 
0 964 4700 
0 964 634 
0 895 634 
0 752 213 
0 752 868 
0 752 289 
0 752 2825 
0 752 4002 
0 752 290 
0 752 1947 
0 750 4700 
0 750 568 
0 750 38 
0 750 261 
0 749 634 
0 749 4294 
0 961 213 
0 961 868 
0 961 419 
0 961 289 
0 961 2825 
0 961 4002 
0 961 290 
0 961 1007 
0 961 1947 
0 961 2454 
0 753 419 
0 753 1007 
0 753 2454 
0 900 642 
0 889 3671 
0 888 7700 
0 888 5215 
0 888 4548 
0 888 7301 
0 888 7783 
0 888 1908 
0 888 6405 
0 888 7851 
0 888 6465 
0 888 2498 
0 888 7693 
0 888 6402 
0 888 1556 
0 888 5463 
0 888 4000 
0 888 4520 
0 888 1416 
0 888 4085 
0 853 670 
0 853 2942 
0 853 6458 
0 851 2000 
0 851 2432 
0 851 7171 
0 890 7665 
0 886 6274 
0 886 3543 
0 885 2000 
0 885 2432 
0 885 7171 
0 891 3612 
0 891 4664 
0 891 7419 
0 891 834 
0 887 1889 
0 887 3181 
0 887 6413 
0 809 122 
0 893 7059 
0 893 6447 
0 893 2759 
0 893 5699 
0 893 2137 
0 893 6086 
0 893 7052 
0 893 6639 
0 892 2776 
0 892 5709 
0 892 2988 
0 892 3740 
0 895 4732 
0 895 2137 
0 895 6086 
0 895 4435 
0 895 7052 
0 895 6639 
0 895 909 
0 888 7719 
0 888 7639 
0 888 2749 
0 888 5993 
0 888 6032 
0 888 3999 
0 888 1818 
0 888 12 
0 888 2688 
0 888 3505 
0 888 5004 
0 888 1886 
0 888 3831 
0 888 909 
0 853 122 
0 501 2919 
0 379 2919 
0 389 6404 
1 2604 3263 
1 2614 3263 
1 2602 3263 
0 366 4554 
0 395 7162 
0 449 3381 
0 435 6487 
0 432 3381 
0 407 303 
0 407 942 
0 405 7160 
0 403 7116 
0 455 3182 
0 425 3182 
0 415 7929 
0 506 1811 
0 496 1211 
0 496 2895 
0 386 2895 
0 386 3571 
0 384 7896 
0 380 1371 
0 378 7612 
0 503 7612 
0 501 1371 
0 385 1211 
0 381 1371 
0 379 7487 
0 375 1811 
0 494 79 
0 494 4102 
0 490 4140 
0 392 2946 
0 392 4140 
0 392 1356 
0 390 2911 
0 390 3170 
0 388 4102 
0 489 2946 
0 489 1356 
0 387 79 
0 387 2009 
0 386 2009 
0 495 2009 
0 514 4152 
0 510 899 
0 508 6200 
0 372 7654 
0 372 899 
0 370 5367 
0 368 4152 
0 364 7940 
0 374 6271 
0 374 6200 
0 480 397 
0 402 1184 
0 402 397 
0 400 7013 
0 481 7013 
0 479 1184 
0 401 6844 
0 401 3920 
0 399 6744 
0 399 4170 
0 446 4263 
0 436 4263 
0 434 4996 
0 435 2215 
0 435 4996 
0 478 4322 
0 474 1666 
0 408 1666 
0 408 688 
0 473 688 
0 403 4322 
0 456 5725 
0 454 596 
0 430 3802 
0 426 5725 
0 424 1056 
0 420 3258 
0 461 3258 
0 457 1056 
0 429 299 
0 427 596 
0 425 2841 
0 466 67 
0 464 619 
0 418 619 
0 416 67 
0 531 7156 
0 504 939 
0 504 3190 
0 502 3162 
0 500 2273 
0 382 2273 
0 380 3162 
0 380 7943 
0 378 939 
0 378 3190 
0 374 3600 
0 374 5921 
0 374 7864 
0 508 3600 
0 508 5921 
0 494 3096 
0 494 202 
0 494 4449 
0 494 5024 
0 492 5058 
0 490 4404 
0 488 3956 
0 394 3956 
0 392 4404 
0 390 5058 
0 388 3096 
0 388 202 
0 388 4449 
0 388 5024 
1 2540 3330 
1 2548 3330 
1 2538 3330 
0 523 6392 
0 515 2603 
0 514 2313 
0 514 3714 
0 514 1741 
0 514 6529 
0 514 4056 
0 512 1319 
0 512 692 
0 510 4176 
0 510 1948 
0 508 7833 
0 372 4176 
0 372 1948 
0 372 6798 
0 370 1319 
0 370 692 
0 370 5683 
0 368 2313 
0 368 3714 
0 368 1741 
0 368 6529 
0 368 4056 
0 364 2881 
0 364 2603 
0 374 7833 
0 486 4289 
0 486 5294 
0 484 5328 
0 480 1050 
0 480 2802 
0 402 1050 
0 402 2802 
0 402 4227 
0 398 5328 
0 396 4289 
0 396 5294 
0 396 6515 
0 594 2216 
0 594 4611 
0 589 5856 
0 517 2216 
0 517 4611 
0 448 5132 
0 446 2034 
0 446 5787 
0 436 2034 
0 436 5787 
0 434 5132 
0 625 4827 
0 559 4827 
0 478 1531 
0 476 4214 
0 406 4214 
0 404 1531 
0 609 449 
0 575 449 
0 456 1199 
0 456 2606 
0 454 6781 
0 454 492 
0 450 5532 
0 428 6781 
0 428 492 
0 428 1754 
0 426 1199 
0 426 2606 
0 432 5532 
0 621 2214 
0 619 4518 
0 617 6105 
0 567 5299 
0 567 6105 
0 565 4518 
0 563 2214 
0 470 4110 
0 468 739 
0 468 7194 
0 464 5619 
0 464 3630 
0 464 5889 
0 418 5619 
0 418 3630 
0 418 5889 
0 414 739 
0 414 7194 
0 412 4110 
0 420 5673 
0 529 7895 
0 641 4755 
0 544 4755 
0 519 7702 
0 631 1835 
0 553 1835 
0 599 1040 
0 597 5354 
0 587 5354 
0 585 1040 
0 517 506 
0 517 4412 
0 557 1422 
0 565 4528 
0 530 6372 
0 522 5451 
0 522 2153 
0 590 3871 
0 589 7518 
0 582 592 
0 574 840 
0 583 4456 
0 584 3762 
0 564 7529 
0 569 3482 
0 1181 4284 
0 1063 6048 
0 1057 1838 
0 1055 4284 
0 1055 7757 
0 532 6039 
0 1189 3758 
0 1048 3758 
0 1047 6347 
0 1044 4047 
0 524 1683 
0 1077 5694 
0 1109 7470 
0 1106 5097 
0 1095 371 
0 1059 2317 
0 1054 7435 
0 1053 3346 
0 1069 5537 
0 1067 2189 
1 2582 3992 
1 2593 3992 
1 2584 3992 
0 1049 7261 
0 1075 2399 
0 1082 3502 
0 1081 4032 
0 1081 7642 
0 1095 7689 
0 1094 1628 
0 1093 4709 
0 1255 7085 
0 1062 2974 
0 1056 7085 
0 1066 24 
0 1047 1164 
0 1045 2797 
0 1236 1511 
0 995 1511 
0 1351 1511 
0 1303 5735 
0 1299 1511 
0 1074 4113 
0 1114 7213 
0 1311 7657 
0 1106 7600 
0 1286 6027 
0 1283 5250 
0 1279 6747 
0 1293 5508 
0 1293 6618 
0 1292 6616 
0 1312 6140 
1 1952 90 
1 1952 2828 
1 1951 2828 
1 1949 90 
1 1949 2828 
1 1963 90 
1 1964 90 
1 1966 90 
1 1966 2828 
1 1965 90 
1 1967 90 
1 1968 2828 
0 1332 7286 
0 1327 7037 
0 1319 3979 
0 1284 4583 
0 1282 3739 
0 157 2970 
0 242 2193 
0 241 2193 
0 240 1717 
0 149 1717 
0 149 2193 
0 1302 1717 
1 1005 48 
1 1005 1141 
1 1573 1141 
1 1040 2966 
1 1557 48 
1 1548 48 
1 1550 48 
1 1572 1141 
1 1576 4252 
1 1576 2966 
1 1581 4252 
1 1581 2966 
1 1589 4252 
1 1589 2966 
1 1590 4252 
1 1590 2966 
1 1577 1141 
1 1591 4252 
1 1588 1141 
1 1587 1141 
0 1314 4654 
0 1314 1567 
0 1332 6780 
0 1336 4687 
0 135 7147 
0 105 5096 
0 247 5443 
0 246 1103 
0 155 5443 
0 154 1103 
0 154 5443 
0 153 1103 
0 99 5772 
0 97 1000 
0 241 1131 
0 149 1131 
0 148 1131 
0 107 2469 
0 91 3675 
0 139 3475 
0 137 4932 
1 1601 2951 
1 1571 2951 
1 1582 2951 
1 1577 2951 
1 1588 2951 
1 1587 2951 
0 1465 585 
0 1465 2679 
0 1465 4119 
0 1465 5243 
0 1458 2679 
0 1458 4119 
0 1457 585 
0 1464 5243 
0 1459 5243 
0 105 2937 
0 1464 3085 
0 1459 3085 
0 61 1339 
0 152 125 
0 266 1339 
0 279 3256 
0 243 3256 
0 150 3256 
0 108 5730 
0 254 443 
0 231 443 
0 138 443 
0 132 7707 
