ITEM: TIMESTEP
20000000
ITEM: NUMBER OF ENTRIES
625
ITEM: BOX BOUNDS ff ff ff
-0.01 0.45
-0.15 0.15
-0.08 0.1
ITEM: ENTRIES c_pwc[1] c_pwc[2] c_pwc[3] 
0 863 1834 
0 850 6 
0 850 545 
0 850 892 
0 850 126 
0 850 632 
0 885 545 
0 885 892 
0 885 126 
0 885 632 
0 884 6 
0 854 2434 
0 884 214 
0 884 610 
0 884 2291 
0 884 1110 
0 884 1827 
0 884 794 
0 884 1211 
0 884 1151 
0 884 2474 
0 854 1826 
0 854 2265 
0 854 907 
0 854 2175 
0 854 1011 
0 854 1262 
0 854 2088 
0 854 2123 
0 854 1814 
0 854 605 
0 854 2144 
0 854 610 
0 854 697 
0 854 1062 
0 854 1135 
0 854 1782 
0 854 1915 
0 854 350 
0 854 1634 
0 854 1740 
0 854 1988 
0 854 2011 
0 808 95 
0 853 461 
0 853 1110 
0 853 794 
0 853 589 
0 853 583 
0 853 1538 
0 853 52 
0 853 95 
0 853 1436 
0 852 933 
0 852 881 
0 852 1417 
0 852 1988 
0 852 1252 
0 852 1207 
0 852 1114 
0 852 1427 
0 852 2063 
0 852 1232 
0 852 1079 
0 852 1745 
0 852 1502 
0 852 1372 
0 852 840 
0 894 63 
0 894 2083 
0 894 1828 
0 894 2219 
0 894 137 
0 894 1923 
0 894 968 
0 894 1798 
0 894 655 
0 852 1903 
0 852 1222 
0 852 828 
0 855 1113 
0 855 732 
0 855 1730 
0 855 1852 
0 854 1989 
0 854 597 
0 854 1945 
0 931 431 
1 2707 838 
1 2721 838 
1 2722 838 
1 134 838 
1 136 838 
1 120 838 
1 123 838 
1 2650 838 
1 125 838 
1 2649 838 
1 2703 838 
1 2702 838 
1 126 838 
1 2647 838 
1 2644 838 
1 2724 838 
1 2672 838 
1 2673 838 
1 2674 838 
1 2726 838 
1 2694 1041 
1 2713 1041 
0 918 1091 
0 916 38 
0 885 241 
0 885 1641 
0 885 25 
0 885 2241 
0 885 1600 
0 885 2182 
0 885 844 
0 885 236 
0 885 1551 
0 885 414 
0 885 523 
0 885 12 
0 885 229 
0 885 7 
0 850 241 
0 850 1641 
0 850 25 
0 850 2241 
0 850 1600 
0 850 844 
0 850 236 
0 850 1551 
0 850 414 
0 850 523 
0 850 229 
0 851 12 
0 851 7 
0 895 502 
1 1856 1768 
1 1851 1768 
1 1897 279 
1 1862 279 
1 1852 1768 
1 1881 279 
1 1879 1768 
1 562 653 
1 516 1768 
1 1691 653 
1 517 1768 
1 1874 279 
1 1882 279 
1 1883 279 
1 1898 279 
1 560 653 
1 1889 279 
1 1890 279 
1 1695 653 
1 485 1768 
1 486 1768 
1 1891 279 
1 487 1768 
1 488 1768 
1 1694 653 
1 1899 279 
0 853 2399 
0 853 1636 
0 853 607 
0 853 462 
0 853 2290 
0 853 11 
0 853 1788 
0 853 2429 
0 853 2296 
0 853 1161 
0 853 140 
0 853 699 
0 853 2118 
0 853 53 
0 853 1332 
0 853 524 
0 853 1642 
0 853 1938 
0 853 1575 
0 884 1399 
0 884 630 
0 884 1649 
0 884 432 
0 884 1447 
0 884 1708 
0 884 560 
0 884 2155 
0 884 501 
0 885 2448 
0 885 1949 
0 885 396 
0 850 1399 
0 852 78 
0 852 418 
0 852 2380 
0 852 2119 
0 894 1210 
0 894 963 
0 894 2189 
0 894 1018 
0 894 1083 
0 894 878 
0 894 1046 
0 894 784 
0 894 923 
0 894 1673 
0 894 424 
0 894 1419 
0 894 953 
0 894 2084 
0 894 1523 
0 894 2303 
0 894 1556 
0 894 1668 
0 852 1007 
0 852 1293 
0 852 2097 
0 852 1143 
0 852 1182 
0 895 1391 
0 895 3 
0 895 1088 
0 895 1584 
0 895 362 
0 895 1556 
0 853 2062 
0 937 1657 
0 933 2487 
0 927 1877 
0 911 1433 
0 886 245 
0 431 2493 
0 885 2439 
0 885 245 
0 850 245 
0 965 1366 
0 963 1700 
0 959 1123 
0 955 930 
0 955 45 
0 892 566 
0 759 930 
0 759 45 
1 543 1411 
1 526 1411 
1 542 1411 
1 548 1411 
1 505 1411 
1 1687 141 
1 541 1411 
1 547 1411 
1 504 1850 
1 524 1411 
1 523 1411 
1 546 1411 
1 545 1411 
1 503 1850 
1 544 1411 
1 502 1850 
1 502 1411 
1 519 1411 
1 1688 141 
1 501 1411 
1 1870 1411 
1 483 1850 
1 1869 1411 
1 1868 1411 
1 1829 1411 
1 1885 1411 
1 1835 1411 
1 481 1850 
1 1832 1411 
1 1698 141 
1 1834 1411 
1 499 1850 
1 497 1850 
1 1866 1411 
1 1865 1411 
1 1887 1411 
1 1888 1411 
0 889 1476 
0 888 532 
0 888 1630 
0 888 2437 
0 888 528 
0 888 1383 
0 888 646 
0 888 1939 
0 888 1382 
0 888 1548 
0 888 1401 
0 888 910 
0 888 413 
0 888 394 
0 888 218 
0 853 303 
0 853 910 
0 853 1172 
0 886 1997 
0 885 2234 
0 891 1559 
0 891 375 
0 887 1365 
0 887 1695 
0 893 2046 
0 892 2163 
0 892 2064 
0 892 233 
0 892 248 
0 895 325 
0 895 2046 
0 895 248 
0 888 472 
0 888 1861 
0 888 1243 
0 888 652 
0 888 555 
0 888 1487 
0 888 467 
0 853 1415 
0 853 467 
0 385 1958 
0 381 2484 
0 377 1291 
0 371 295 
0 369 665 
0 369 1542 
0 367 2284 
0 366 1297 
0 401 2404 
0 399 536 
0 391 2497 
0 389 1633 
0 389 947 
0 435 1648 
0 427 1036 
0 417 1501 
0 413 520 
0 411 1602 
0 409 2326 
0 403 596 
0 374 2467 
0 372 1412 
0 368 765 
0 364 2390 
0 369 1572 
0 369 765 
0 367 2142 
0 366 1985 
0 398 1640 
0 394 601 
0 390 1127 
0 390 1320 
0 388 873 
0 436 317 
0 434 1910 
0 434 367 
0 432 1928 
0 428 1516 
0 428 99 
0 420 1528 
0 437 1359 
0 433 1928 
0 429 1180 
0 421 2457 
0 365 1790 
0 365 1546 
0 408 272 
0 408 440 
0 417 1238 
0 417 1963 
0 415 595 
0 415 1268 
0 413 2367 
0 409 2252 
0 409 2352 
0 409 882 
1 1721 2252 
1 1720 2252 
0 531 2307 
0 529 2482 
0 527 2235 
0 518 793 
0 518 259 
0 380 1480 
0 380 1801 
0 378 889 
0 378 1235 
0 374 385 
0 368 466 
0 553 1981 
0 541 650 
0 402 1564 
0 396 1925 
0 390 2103 
0 390 1669 
0 587 2344 
0 585 682 
0 581 2449 
0 577 1686 
0 575 357 
0 430 2374 
0 428 2436 
0 428 2398 
0 428 2149 
0 422 1422 
0 567 700 
0 559 1266 
0 555 552 
0 418 1537 
0 418 2422 
0 414 922 
0 410 529 
0 537 494 
0 531 1531 
0 531 2167 
0 529 37 
0 529 877 
0 529 2053 
0 523 1248 
0 523 2418 
0 521 231 
0 521 390 
0 519 2217 
0 518 2320 
0 530 398 
0 549 615 
0 547 146 
0 539 490 
0 539 774 
0 546 2204 
0 589 165 
0 585 1311 
0 579 712 
0 575 2230 
0 571 944 
0 571 1665 
0 586 434 
0 584 510 
0 578 2318 
0 576 830 
0 572 86 
0 569 1331 
0 565 1705 
0 559 1397 
0 557 1623 
0 557 1699 
0 557 2178 
0 558 1699 
0 538 2159 
0 536 1603 
0 536 1003 
0 536 1539 
0 534 975 
0 534 1215 
0 532 1309 
0 532 2269 
0 528 1393 
0 526 391 
0 526 1558 
0 522 709 
0 537 992 
0 535 726 
0 535 997 
0 527 90 
0 525 391 
0 519 2355 
0 550 2354 
0 548 84 
0 544 1742 
0 544 2236 
0 539 492 
0 538 492 
0 590 1299 
0 588 1529 
0 586 2115 
0 584 361 
0 584 50 
0 582 2013 
0 582 370 
0 582 1174 
0 572 198 
0 572 2292 
0 587 691 
0 587 1413 
0 571 19 
0 560 2432 
0 558 465 
0 556 598 
0 557 465 
0 1062 960 
0 1059 600 
0 1055 1509 
0 1053 333 
0 1051 1324 
0 1049 2067 
0 1047 478 
0 1045 128 
0 1044 2288 
0 528 790 
0 524 1362 
0 1079 469 
0 1079 1213 
0 1073 796 
0 1071 176 
0 1071 332 
0 1069 1864 
0 1069 452 
0 1067 1190 
0 1065 1560 
0 1115 222 
0 1109 174 
0 1109 716 
0 1105 659 
0 1101 964 
0 1099 2312 
0 1085 1499 
0 1085 526 
0 1083 1055 
0 1081 897 
0 1081 1984 
0 560 1612 
0 572 2371 
0 1063 1432 
0 1061 341 
0 1060 1753 
0 1058 1272 
0 1055 2253 
0 1051 1890 
0 1047 1373 
0 1045 2365 
0 1080 2268 
0 1078 1459 
0 1078 771 
0 1077 771 
0 1075 1498 
0 1074 1318 
0 1073 883 
0 1069 57 
0 1068 1261 
0 1065 480 
0 1116 120 
0 1115 582 
0 1112 1377 
0 1110 117 
0 1109 75 
0 1105 1919 
0 1105 1815 
0 1105 744 
0 1105 1344 
0 1105 275 
0 1101 177 
0 1101 967 
0 1097 1912 
0 1095 1072 
0 1086 282 
0 1086 1849 
0 1085 282 
0 1084 40 
0 1081 2378 
0 1097 1234 
0 1063 1237 
0 1062 648 
0 1054 795 
0 1052 891 
0 1048 519 
0 1042 2076 
0 1080 407 
0 1080 363 
0 1078 167 
0 1072 411 
0 1070 34 
0 1341 392 
0 1114 81 
0 1110 879 
0 1106 104 
0 1102 2091 
0 1098 799 
0 1311 507 
0 1096 336 
0 1088 693 
0 1086 1749 
0 1086 1303 
0 1085 639 
0 1082 780 
0 1082 1019 
0 1081 1552 
0 1081 870 
0 1098 261 
0 1289 809 
0 1288 215 
0 1287 14 
0 1283 1469 
0 1283 66 
0 1281 1880 
0 1277 888 
0 1273 1445 
0 1273 1430 
0 1304 817 
0 1299 1574 
0 1291 2289 
0 1291 955 
0 1337 871 
0 1335 103 
0 1335 497 
0 1334 406 
0 1333 487 
0 1327 1038 
0 1325 1109 
0 1317 9 
0 1311 1026 
0 1309 156 
0 1276 1089 
0 147 58 
0 1343 2349 
0 1324 1063 
0 136 645 
0 133 1070 
0 129 746 
