ITEM: TIMESTEP
20000000
ITEM: NUMBER OF ENTRIES
1802
ITEM: BOX BOUNDS ff ff ff
-0.01 0.45
-0.15 0.15
-0.08 0.1
ITEM: ENTRIES c_pwc[1] c_pwc[2] c_pwc[3] 
0 928 1248 
0 784 1248 
0 944 934 
0 942 5917 
0 942 934 
0 940 3517 
0 940 5917 
0 940 7053 
0 940 9929 
0 774 3517 
0 774 7053 
0 772 5917 
0 770 934 
0 938 3517 
0 824 289 
0 924 289 
0 924 6624 
0 924 385 
0 922 1679 
0 922 2060 
0 920 1314 
0 920 3704 
0 792 1314 
0 792 3704 
0 790 289 
0 790 1679 
0 790 2060 
0 788 6624 
0 788 385 
0 950 66 
0 950 2240 
0 948 7919 
0 946 488 
0 766 488 
0 764 7919 
0 762 66 
0 762 2240 
0 918 1091 
0 918 4458 
0 918 1187 
0 916 8453 
0 916 2102 
0 916 1665 
0 916 3391 
0 914 84 
0 914 2090 
0 914 5542 
0 914 555 
0 914 3179 
0 912 84 
0 912 1594 
0 912 9350 
0 800 84 
0 800 1594 
0 800 9350 
0 798 2090 
0 798 8453 
0 798 5542 
0 798 555 
0 798 3179 
0 796 1091 
0 796 2102 
0 796 1665 
0 796 1187 
0 796 3391 
0 794 1091 
0 960 1363 
0 958 1363 
0 958 9912 
0 754 1363 
0 896 3451 
0 850 236 
0 850 982 
0 850 177 
0 850 53 
0 850 3090 
0 850 1093 
0 850 46 
0 850 79 
0 850 1199 
0 850 2621 
0 850 1765 
0 850 3174 
0 850 8122 
0 850 5432 
0 850 1327 
0 850 1857 
0 850 1080 
0 850 654 
0 850 4632 
0 850 4888 
0 850 5426 
0 850 3690 
0 748 3451 
0 910 1116 
0 885 1093 
0 885 3451 
0 885 46 
0 885 79 
0 885 1199 
0 885 1765 
0 885 5432 
0 885 1857 
0 885 1080 
0 885 654 
0 885 4632 
0 885 4888 
0 885 5426 
0 885 3690 
0 804 1116 
0 803 1116 
0 884 9761 
0 884 236 
0 884 982 
0 884 177 
0 884 1268 
0 884 53 
0 884 3090 
0 884 4660 
0 884 2621 
0 884 3174 
0 884 8122 
0 884 1327 
0 854 7441 
0 854 101 
0 854 873 
0 854 3544 
0 908 3932 
0 855 2398 
0 736 3932 
0 895 3932 
0 752 5102 
0 894 2398 
0 894 7407 
0 894 7820 
0 960 5102 
0 884 7892 
0 884 4028 
0 884 8539 
0 884 3109 
0 884 5506 
0 884 1915 
0 884 4137 
0 884 4337 
0 884 787 
0 884 6328 
0 884 1074 
0 884 7497 
0 884 7135 
0 884 7116 
0 884 8774 
0 884 2431 
0 884 9709 
0 884 5797 
0 884 7353 
0 884 6016 
0 884 7294 
0 884 6888 
0 884 7973 
0 884 89 
0 884 2818 
0 884 3241 
0 884 3997 
0 884 3081 
0 884 6118 
0 884 8801 
0 884 4758 
0 884 283 
0 884 5789 
0 884 2814 
0 884 7459 
0 884 8354 
0 884 378 
0 884 2132 
0 884 4712 
0 884 9373 
0 884 285 
0 884 3695 
0 884 536 
0 884 699 
0 884 2335 
0 884 1272 
0 884 704 
0 884 3307 
0 884 2795 
0 884 5949 
0 884 8695 
0 884 9050 
0 884 5513 
0 884 8146 
0 884 4497 
0 884 9366 
0 884 4813 
0 884 2651 
0 854 6838 
0 854 7892 
0 854 5597 
0 854 8083 
0 854 2360 
0 854 2448 
0 854 2460 
0 854 1658 
0 854 4028 
0 854 5472 
0 854 5574 
0 854 2781 
0 854 5941 
0 854 3072 
0 854 3165 
0 854 1428 
0 854 8539 
0 854 7713 
0 854 7042 
0 854 7320 
0 854 8286 
0 854 91 
0 854 8596 
0 854 4364 
0 854 3815 
0 854 1633 
0 854 2094 
0 854 665 
0 854 3789 
0 854 6756 
0 854 4957 
0 854 9243 
0 854 7887 
0 854 4623 
0 854 3450 
0 854 1338 
0 854 2469 
0 854 2511 
0 854 4870 
0 854 5563 
0 854 2641 
0 854 6914 
0 854 2874 
0 854 7834 
0 854 2740 
0 854 8745 
0 854 1915 
0 854 7182 
0 854 1245 
0 854 7747 
0 854 8601 
0 854 3681 
0 854 4137 
0 854 4696 
0 854 4558 
0 854 239 
0 854 9384 
0 854 4342 
0 854 4319 
0 854 3051 
0 854 6211 
0 854 4337 
0 854 6308 
0 854 5351 
0 853 4337 
0 853 8213 
0 853 906 
0 853 283 
0 853 5008 
0 853 2854 
0 853 5664 
0 853 77 
0 853 7071 
0 853 874 
0 853 6846 
0 853 4885 
0 853 1672 
0 853 4190 
0 853 2949 
0 853 3302 
0 853 6575 
0 853 4955 
0 853 4275 
0 853 4520 
0 850 3997 
0 850 285 
0 850 704 
0 852 6308 
0 852 3559 
0 852 5979 
0 852 5351 
0 852 6810 
0 852 1919 
0 852 3482 
0 852 426 
0 852 2996 
0 852 8551 
0 852 1024 
0 852 2832 
0 852 5296 
0 852 8239 
0 852 2147 
0 852 4242 
0 852 6380 
0 852 2233 
0 852 800 
0 852 331 
0 852 4383 
0 852 1562 
0 852 8784 
0 852 6658 
0 852 9171 
0 852 4230 
0 852 5269 
0 852 1636 
0 852 8840 
0 852 8666 
0 852 9277 
0 894 4351 
0 894 6449 
0 894 3321 
0 894 5759 
0 894 2754 
0 894 936 
0 894 2783 
0 894 779 
0 894 4248 
0 894 997 
0 894 324 
0 894 1661 
0 894 7301 
0 894 8969 
0 894 4990 
0 894 1266 
0 894 5444 
0 894 2577 
0 894 4033 
0 894 2954 
0 894 1516 
0 894 2051 
0 894 2914 
0 894 8497 
0 894 3663 
0 852 1028 
0 855 5265 
0 855 171 
0 855 8862 
0 855 968 
0 855 6807 
0 855 5584 
0 855 7851 
0 855 4351 
0 855 2464 
0 855 1449 
0 855 2070 
0 855 3722 
0 855 1430 
0 855 1461 
0 855 2802 
0 855 6435 
0 855 7589 
0 855 8540 
0 855 1500 
0 855 4666 
0 855 6449 
0 855 5328 
0 855 4587 
0 855 7363 
0 855 4504 
0 855 7405 
0 855 3696 
0 855 3112 
0 855 3769 
0 855 6687 
0 854 1554 
0 854 7549 
0 854 5794 
0 854 2201 
0 854 3065 
0 854 96 
0 854 575 
0 854 3772 
0 854 7811 
0 778 7174 
0 935 7174 
1 2703 5750 
1 2703 3076 
1 2706 9837 
1 2702 5750 
1 2702 3076 
1 2685 8607 
1 2685 108 
1 2722 9837 
1 2698 9837 
1 2698 8607 
1 2698 108 
1 2713 1839 
1 2701 5004 
1 2701 5750 
1 2701 3076 
1 2725 5004 
1 2725 5750 
1 2725 3076 
1 2694 1839 
1 2717 9837 
1 2717 8607 
1 2717 108 
1 2717 3076 
1 2705 9837 
1 2704 9837 
0 926 9946 
0 922 6083 
0 922 7583 
0 792 6083 
0 921 6083 
0 766 6249 
0 947 6249 
1 842 1978 
1 842 964 
1 842 17 
1 2677 1039 
1 67 983 
1 67 5057 
1 65 5057 
1 2520 2261 
1 2519 5057 
1 101 9026 
1 2507 671 
1 2521 2261 
1 61 983 
1 61 5057 
1 96 4627 
1 2508 2261 
1 100 9026 
1 60 983 
1 2509 420 
1 102 9026 
1 66 5057 
1 103 9026 
1 103 4627 
1 2522 2261 
1 2517 5437 
1 2517 5057 
1 93 6282 
1 93 4627 
1 97 6282 
1 97 4627 
1 72 325 
1 72 94 
1 72 983 
1 98 6282 
1 98 4627 
1 2516 5437 
1 2523 2364 
1 71 325 
1 71 983 
1 94 6282 
1 2505 2364 
1 2500 5437 
1 75 325 
1 75 94 
1 92 2600 
1 92 6552 
1 95 2600 
1 90 6552 
1 73 94 
1 73 1472 
1 74 94 
1 91 2600 
1 78 1472 
1 87 1035 
1 76 1472 
1 2681 1039 
1 2528 319 
1 62 6552 
1 77 9043 
1 77 1472 
1 81 9043 
1 81 7780 
1 2499 319 
1 85 7780 
1 85 1035 
1 2513 6552 
1 86 1035 
1 83 9043 
1 83 7780 
1 82 9043 
1 82 7780 
1 80 9043 
1 80 7780 
1 84 9043 
1 84 7780 
1 2709 15 
1 2709 1106 
1 2709 508 
1 2709 1039 
1 2709 6 
1 2709 193 
1 2502 319 
1 2503 326 
1 2691 15 
1 2691 1106 
1 2691 508 
1 2691 1039 
1 2691 6 
1 2691 193 
1 2501 1493 
1 2501 8268 
1 2667 253 
1 2642 253 
1 787 1978 
1 787 364 
1 787 110 
1 787 1493 
1 787 964 
1 114 5530 
1 2710 325 
1 116 5530 
1 2680 15 
1 2680 1106 
1 118 5530 
1 125 5530 
1 117 5530 
1 127 5530 
1 2693 253 
1 126 5530 
1 2708 253 
1 2711 253 
1 2707 6314 
1 2707 253 
1 2718 253 
1 2719 253 
1 2705 1690 
1 791 3102 
1 791 195 
1 789 195 
1 841 5999 
1 841 2718 
1 841 3102 
1 841 17 
1 841 195 
1 843 1556 
1 843 9931 
1 843 1945 
1 843 971 
1 843 83 
1 843 487 
1 843 3134 
1 788 110 
1 788 1493 
1 2700 5530 
1 2706 1690 
1 2706 6314 
1 2695 2600 
1 2721 1690 
1 2721 6314 
1 2722 1690 
1 2722 6314 
1 2698 1690 
1 2698 6314 
1 2699 5530 
1 844 1556 
1 844 9931 
1 844 1945 
1 844 971 
1 844 83 
1 844 487 
1 844 3134 
0 958 801 
0 956 5160 
0 956 9938 
0 954 6250 
0 961 6671 
0 959 801 
0 759 6250 
0 755 801 
0 753 6671 
1 1894 7166 
1 1894 3837 
1 1857 7166 
1 1857 8621 
1 1857 8043 
1 1857 3837 
1 1857 7223 
1 1857 4143 
1 1857 7910 
1 1875 7166 
1 1875 8621 
1 1875 8043 
1 1875 3837 
1 1875 7223 
1 1875 7483 
1 1856 7483 
1 1856 2995 
1 1856 2521 
1 1856 1538 
1 1851 7483 
1 1862 4382 
1 1862 1707 
1 1862 9596 
1 1864 9557 
1 1864 9661 
1 1864 4143 
1 1864 7910 
1 1864 1433 
1 1863 9557 
1 1863 9661 
1 1863 1433 
1 1881 9557 
1 1881 9661 
1 1881 4143 
1 1881 4382 
1 1881 1707 
1 1879 4143 
1 1879 7910 
1 1879 2995 
1 1880 4143 
1 1880 7910 
1 1880 1433 
1 1692 769 
1 562 769 
1 514 4910 
1 513 1538 
1 515 4910 
1 515 1538 
1 516 2521 
1 516 1538 
1 1691 7428 
1 517 2521 
1 517 1538 
1 533 1433 
1 1861 9596 
1 1861 1433 
1 1874 1707 
1 1874 9596 
1 1873 9596 
1 1873 7984 
1 1882 1707 
1 1883 1707 
1 1883 1433 
1 1889 1433 
1 1820 1433 
1 1695 2343 
1 1845 1433 
1 1846 1433 
1 1891 9596 
1 1891 7984 
1 487 670 
1 1847 1433 
1 1824 1433 
1 488 670 
1 488 1431 
1 1694 2343 
1 489 670 
1 489 1431 
1 490 670 
1 490 1431 
1 660 95 
1 660 218 
1 660 1643 
1 660 4962 
1 660 5975 
1 491 1161 
1 493 81 
1 494 1161 
1 494 168 
1 494 81 
1 495 168 
1 495 81 
1 555 1161 
1 1693 2610 
1 554 1161 
1 1697 2610 
1 511 4910 
1 1872 7984 
1 497 168 
1 496 168 
1 496 81 
1 1696 75 
1 661 95 
1 661 218 
1 661 1643 
1 661 4962 
1 661 5975 
0 910 6570 
0 910 2505 
0 910 5473 
0 910 2667 
0 910 9354 
0 910 759 
0 910 1071 
0 910 4977 
0 910 4667 
0 910 8190 
0 910 4236 
0 909 6570 
0 909 2505 
0 909 9354 
0 909 1071 
0 909 8190 
0 885 1831 
0 885 4818 
0 885 537 
0 885 4663 
0 885 7205 
0 885 5879 
0 885 1925 
0 885 6669 
0 885 1234 
0 885 5787 
0 885 695 
0 885 1416 
0 885 5223 
0 885 2378 
0 885 4913 
0 885 208 
0 885 5238 
0 885 4828 
0 885 176 
0 885 1042 
0 885 1361 
0 885 1117 
0 885 913 
0 885 827 
0 885 9275 
0 885 605 
0 885 1509 
0 885 2753 
0 885 5081 
0 885 1470 
0 885 2442 
0 885 4366 
0 885 41 
0 885 446 
0 885 292 
0 885 743 
0 885 1506 
0 885 626 
0 885 1717 
0 885 391 
0 885 2725 
0 885 756 
0 885 3235 
0 885 1466 
0 885 6946 
0 885 1871 
0 885 547 
0 885 3 
0 885 55 
0 885 836 
0 885 6884 
0 885 419 
0 885 1130 
0 885 62 
0 885 49 
0 885 158 
0 885 5885 
0 885 54 
0 885 154 
0 885 147 
0 885 13 
0 885 82 
0 885 1494 
0 885 366 
0 885 1953 
0 885 774 
0 885 233 
0 885 34 
0 885 804 
0 885 2101 
0 885 5063 
0 885 871 
0 804 6570 
0 804 2505 
0 804 5473 
0 804 9354 
0 804 1071 
0 804 8190 
0 802 86 
0 911 86 
0 803 5473 
0 803 2667 
0 803 759 
0 803 4977 
0 803 4667 
0 803 4236 
0 850 1831 
0 850 4818 
0 850 537 
0 850 4663 
0 850 7205 
0 850 5879 
0 850 1925 
0 850 6669 
0 850 1234 
0 850 5787 
0 850 695 
0 850 1416 
0 850 5223 
0 850 2378 
0 850 4913 
0 850 208 
0 850 5238 
0 850 4828 
0 850 176 
0 850 1042 
0 850 1361 
0 850 1117 
0 850 913 
0 850 827 
0 850 9275 
0 850 605 
0 850 1509 
0 850 2753 
0 850 5081 
0 850 1470 
0 850 2442 
0 850 4366 
0 850 41 
0 850 446 
0 850 292 
0 850 743 
0 850 1506 
0 850 626 
0 850 391 
0 850 2725 
0 850 756 
0 850 3235 
0 850 1466 
0 850 6946 
0 850 547 
0 850 3 
0 850 55 
0 850 836 
0 850 6884 
0 850 419 
0 850 62 
0 850 49 
0 850 54 
0 850 154 
0 850 147 
0 850 1494 
0 850 366 
0 850 233 
0 851 1717 
0 851 1871 
0 851 1130 
0 851 158 
0 851 5885 
0 851 13 
0 851 82 
0 851 1953 
0 851 774 
0 851 34 
0 851 804 
0 851 2101 
0 851 5063 
0 851 871 
0 962 5622 
0 895 2295 
0 895 6731 
0 895 848 
0 895 8156 
0 895 6109 
0 895 6734 
0 750 6400 
0 963 6400 
0 751 5622 
1 1894 3795 
1 1896 3795 
1 1897 3795 
1 1864 3795 
1 1881 3795 
1 1880 3795 
0 853 1527 
0 853 7989 
0 853 2031 
0 853 1873 
0 853 8706 
0 853 8038 
0 853 4039 
0 853 3295 
0 853 7074 
0 853 5844 
0 853 4523 
0 853 7206 
0 853 7306 
0 853 7833 
0 853 2506 
0 853 6675 
0 853 5224 
0 853 7642 
0 853 9375 
0 853 6232 
0 853 3628 
0 853 6573 
0 853 5030 
0 853 8655 
0 853 4419 
0 853 7228 
0 853 6165 
0 853 6124 
0 853 5567 
0 853 3516 
0 853 6913 
0 853 115 
0 853 4685 
0 853 8907 
0 853 6189 
0 853 3074 
0 853 1065 
0 853 4416 
0 853 8786 
0 853 6533 
0 853 9286 
0 853 6236 
0 853 9155 
0 853 5303 
0 853 8711 
0 853 3338 
0 853 9304 
0 853 5373 
0 853 1974 
0 853 8970 
0 853 8266 
0 853 7996 
0 853 143 
0 853 1030 
0 853 1794 
0 853 9270 
0 853 2984 
0 853 1118 
0 853 7115 
0 853 8880 
0 853 3788 
0 853 6079 
0 853 944 
0 853 8467 
0 853 7304 
0 853 2770 
0 853 9204 
0 853 8417 
0 853 782 
0 853 562 
0 853 7173 
0 853 751 
0 853 3839 
0 853 768 
0 853 9091 
0 853 475 
0 853 7942 
0 853 2882 
0 853 1716 
0 853 8275 
0 853 3683 
0 853 6748 
0 853 1666 
0 851 1906 
0 851 2296 
0 851 5996 
0 851 297 
0 851 369 
0 884 2056 
0 884 7565 
0 884 3588 
0 884 3535 
0 884 8388 
0 884 7876 
0 884 7637 
0 884 5676 
0 884 1569 
0 884 4777 
0 884 7193 
0 884 3778 
0 884 9154 
0 884 8454 
0 884 8610 
0 884 3295 
0 884 9526 
0 884 879 
0 884 1906 
0 884 785 
0 884 4096 
0 884 9530 
0 884 37 
0 884 5224 
0 884 9481 
0 884 4601 
0 884 6226 
0 884 866 
0 884 8894 
0 884 7640 
0 884 6404 
0 884 1007 
0 884 5105 
0 884 2176 
0 884 9454 
0 884 9231 
0 884 3183 
0 884 6193 
0 884 9652 
0 884 8527 
0 884 9312 
0 884 4416 
0 884 9695 
0 884 9599 
0 884 7955 
0 884 4462 
0 884 1451 
0 884 7622 
0 884 2688 
0 884 1224 
0 884 5151 
0 884 1360 
0 884 8372 
0 884 2181 
0 884 3839 
0 808 115 
0 885 802 
0 885 2314 
0 885 2296 
0 885 9550 
0 885 2900 
0 885 5782 
0 885 5996 
0 885 3729 
0 885 257 
0 885 1347 
0 885 8559 
0 885 9930 
0 885 3136 
0 885 7122 
0 885 8845 
0 885 5337 
0 885 297 
0 885 8154 
0 885 8172 
0 885 2643 
0 885 3257 
0 885 369 
0 885 5693 
0 885 5428 
0 885 9790 
0 850 2056 
0 850 802 
0 809 944 
0 852 4051 
0 852 994 
0 852 9400 
0 852 7709 
0 852 6847 
0 852 4394 
0 809 388 
0 809 1725 
0 894 5168 
0 894 805 
0 894 3705 
0 894 1511 
0 894 9249 
0 894 5219 
0 894 9165 
0 894 7741 
0 894 6051 
0 894 7179 
0 894 616 
0 894 6804 
0 894 3155 
0 894 6718 
0 894 2979 
0 894 2143 
0 894 7769 
0 894 8896 
0 894 3352 
0 894 3721 
0 894 6873 
0 894 4409 
0 894 6078 
0 894 4207 
0 894 2130 
0 894 6841 
0 894 8834 
0 894 1775 
0 894 1725 
0 852 388 
0 852 1725 
0 849 1775 
0 895 7472 
0 895 6718 
0 895 7011 
0 895 5924 
0 895 9403 
0 895 7663 
0 895 958 
0 895 9045 
0 895 3014 
0 895 3279 
0 895 3067 
0 895 6417 
0 895 35 
0 895 3347 
0 895 1123 
0 895 5097 
0 895 1775 
0 937 7669 
0 935 5089 
0 931 5957 
0 945 9948 
0 925 9914 
0 921 9266 
0 366 9266 
1 2258 1110 
1 2274 881 
1 2274 1110 
1 2287 881 
1 2287 1110 
1 2286 3477 
1 2285 3477 
1 2300 3477 
1 2302 3477 
1 2303 3477 
0 953 8503 
0 949 3103 
0 760 8503 
1 791 1985 
1 789 1985 
1 789 329 
1 789 581 
1 841 2115 
1 841 1930 
1 841 1985 
1 841 2909 
1 841 685 
1 841 329 
1 841 581 
1 843 220 
1 842 2115 
1 842 1930 
1 842 2909 
1 842 685 
1 844 220 
0 915 3562 
0 961 29 
0 961 7668 
0 961 8255 
0 961 861 
0 961 4731 
0 961 7904 
0 961 3688 
0 961 6454 
0 961 733 
0 961 6976 
0 961 3170 
0 961 1772 
0 961 7005 
0 959 1255 
0 959 63 
0 959 1018 
0 959 1886 
0 959 2134 
0 959 3560 
0 959 3859 
0 957 867 
0 957 702 
0 957 911 
0 957 51 
0 957 2385 
0 957 1324 
0 955 4616 
0 955 3018 
0 955 3192 
0 955 976 
0 955 117 
0 955 884 
0 955 3221 
0 759 4616 
0 759 3018 
0 759 3192 
0 759 976 
0 759 117 
0 759 884 
0 759 3221 
0 757 867 
0 757 702 
0 757 911 
0 757 51 
0 757 2385 
0 757 1324 
0 755 1255 
0 755 63 
0 755 1018 
0 755 1886 
0 755 2134 
0 755 3560 
0 755 3859 
0 753 29 
0 753 7668 
0 753 8255 
0 753 861 
0 753 4731 
0 753 7904 
0 753 3688 
0 753 6454 
0 753 733 
0 753 6976 
0 753 3170 
0 753 1772 
0 753 7005 
1 565 144 
1 566 144 
1 1686 4198 
1 1686 1663 
1 508 1818 
1 508 2646 
1 507 1818 
1 507 2646 
1 650 4198 
1 1687 2435 
1 1687 1663 
1 548 6798 
1 505 1818 
1 505 2646 
1 541 6798 
1 547 6798 
1 1872 7929 
1 504 819 
1 524 6798 
1 557 819 
1 546 6798 
1 523 6798 
1 522 6798 
1 503 819 
1 545 6798 
1 520 6798 
1 544 6798 
1 521 6798 
1 502 819 
1 502 1832 
1 1688 2435 
1 1871 7929 
1 558 819 
1 1870 7929 
1 483 819 
1 1869 7929 
1 1868 6798 
1 1868 7929 
1 482 6176 
1 1893 7929 
1 481 6176 
1 1698 725 
1 1698 2435 
1 1698 3662 
1 499 6176 
1 1699 3212 
1 552 3212 
1 1865 2418 
1 1867 455 
1 1867 7929 
1 1859 1832 
1 1859 2418 
1 1859 127 
1 1888 2418 
1 1900 7929 
1 1886 455 
1 1886 7929 
1 1855 1832 
1 1854 1832 
1 1696 3212 
1 1876 1832 
1 1858 374 
1 655 5849 
1 655 3662 
1 655 3615 
1 655 8 
1 1877 2418 
1 1877 127 
1 1877 374 
1 763 5849 
1 763 122 
1 763 3615 
1 763 8 
1 657 3662 
1 656 3662 
1 651 4198 
1 1689 597 
0 911 2880 
0 911 350 
0 911 3807 
0 911 5 
0 911 1525 
0 905 852 
0 904 9756 
0 903 4426 
0 902 7743 
0 886 8881 
0 886 148 
0 803 2880 
0 803 7281 
0 803 2851 
0 803 3807 
0 803 1525 
0 739 4426 
0 910 7281 
0 910 2851 
0 910 9287 
0 910 3807 
0 909 9287 
0 885 123 
0 885 9287 
0 885 148 
0 804 7281 
0 804 9287 
0 802 350 
0 802 5 
0 850 123 
0 850 148 
0 889 1 
0 889 232 
0 889 241 
0 889 290 
0 889 199 
0 817 1 
0 817 232 
0 817 241 
0 817 290 
0 817 199 
0 967 2168 
0 963 5780 
0 963 710 
0 963 728 
0 963 3550 
0 963 4597 
0 963 116 
0 963 8310 
0 963 808 
0 963 2704 
0 963 460 
0 898 975 
0 893 5765 
0 893 650 
0 751 5780 
0 751 710 
0 751 3550 
0 751 4597 
0 751 116 
0 751 8310 
0 751 808 
0 751 2704 
0 751 460 
0 417 5329 
0 752 1489 
0 752 5945 
0 752 20 
0 752 1709 
0 752 1497 
0 750 728 
0 961 1489 
0 961 7126 
0 961 5945 
0 961 20 
0 961 869 
0 961 1709 
0 961 1497 
0 961 849 
0 753 7126 
0 753 869 
0 753 849 
0 889 2699 
0 889 2733 
0 889 3755 
0 889 8945 
0 889 201 
0 888 2887 
0 888 7378 
0 888 2493 
0 888 7097 
0 888 6512 
0 888 9688 
0 888 5419 
0 888 1032 
0 888 2584 
0 888 8052 
0 888 5213 
0 888 5878 
0 888 2572 
0 888 8848 
0 888 692 
0 888 7563 
0 888 2008 
0 888 9783 
0 888 5449 
0 888 1362 
0 888 8725 
0 888 1458 
0 888 9282 
0 888 1654 
0 888 9639 
0 888 8248 
0 888 9021 
0 888 8271 
0 888 2867 
0 888 190 
0 888 8885 
0 888 7783 
0 888 5235 
0 888 1720 
0 888 5059 
0 888 8544 
0 888 9271 
0 888 7440 
0 888 6477 
0 888 8364 
0 888 8600 
0 888 7754 
0 888 3539 
0 888 3248 
0 888 6970 
0 888 4672 
0 888 8787 
0 888 6980 
0 888 6401 
0 888 128 
0 888 328 
0 888 57 
0 888 1057 
0 888 48 
0 888 651 
0 888 25 
0 888 400 
0 817 201 
0 816 128 
0 816 328 
0 816 57 
0 816 25 
0 815 1057 
0 815 48 
0 815 651 
0 815 400 
0 853 1865 
0 853 3899 
0 853 1127 
0 851 4157 
0 851 1463 
0 851 1407 
0 851 2420 
0 890 9874 
0 890 6814 
0 890 5026 
0 890 5695 
0 890 9501 
0 890 2529 
0 886 7585 
0 886 8582 
0 886 8817 
0 886 6219 
0 885 4157 
0 885 1463 
0 885 984 
0 885 3084 
0 885 1407 
0 885 2420 
0 885 2529 
0 891 5939 
0 891 4709 
0 891 6853 
0 891 1333 
0 887 2926 
0 887 3650 
0 887 7211 
0 887 1325 
0 887 2536 
0 809 180 
0 893 1409 
0 893 8656 
0 892 3462 
0 892 3105 
0 892 5169 
0 892 2702 
0 892 2324 
0 892 5739 
0 892 3244 
0 892 8278 
0 895 7029 
0 895 146 
0 888 6260 
0 888 3971 
0 888 1881 
0 888 2408 
0 888 3536 
0 888 5853 
0 888 1355 
0 888 5532 
0 888 8195 
0 888 6703 
0 888 5463 
0 888 3104 
0 853 180 
0 381 7385 
0 375 7322 
0 391 5230 
0 391 243 
0 389 4792 
1 2613 7824 
1 2604 7824 
1 2602 7824 
0 369 2669 
0 401 9848 
0 395 9910 
0 395 4229 
0 433 3002 
0 403 1909 
0 431 7349 
0 423 9820 
0 417 9816 
0 415 4461 
0 411 9598 
0 500 740 
0 496 4722 
0 386 4722 
0 382 740 
0 375 525 
0 490 3847 
0 392 7020 
0 392 3847 
0 514 1705 
0 514 4775 
0 368 1705 
0 368 4775 
0 395 7603 
0 448 3025 
0 446 1109 
0 444 2393 
0 438 741 
0 438 2393 
0 436 1109 
0 434 3025 
0 443 741 
0 474 9290 
0 408 3627 
0 408 9290 
0 456 3840 
0 456 4196 
0 456 4789 
0 428 3961 
0 426 4196 
0 426 4789 
0 431 8422 
0 425 3840 
0 432 1544 
0 470 8741 
0 468 5005 
0 414 5005 
0 412 8741 
0 535 6285 
0 527 4774 
0 502 7977 
0 502 2737 
0 500 8545 
0 500 7427 
0 382 8545 
0 382 7427 
0 380 7977 
0 380 2737 
0 494 841 
0 492 1596 
0 490 585 
0 392 585 
0 390 1596 
0 388 841 
0 514 1136 
0 514 7522 
0 514 2913 
0 512 2662 
0 508 1488 
0 370 2662 
0 370 6664 
0 368 1136 
0 368 7522 
0 368 2913 
0 368 1610 
0 374 2834 
0 374 1488 
0 486 5204 
0 486 1326 
0 486 532 
0 484 4234 
0 480 1502 
0 402 1502 
0 402 3674 
0 398 4234 
0 396 5204 
0 396 1326 
0 396 532 
0 594 3916 
0 585 3420 
0 517 3916 
0 448 347 
0 448 815 
0 446 2019 
0 444 3713 
0 444 5585 
0 444 1299 
0 438 3713 
0 438 5585 
0 438 1299 
0 436 2019 
0 434 347 
0 434 815 
0 478 3942 
0 478 299 
0 476 4655 
0 472 1283 
0 410 1283 
0 410 9735 
0 410 3147 
0 406 4655 
0 404 3942 
0 404 299 
0 577 9077 
0 575 9760 
0 456 263 
0 456 811 
0 456 4431 
0 454 5653 
0 450 5266 
0 428 5653 
0 426 263 
0 426 811 
0 426 4431 
0 422 5430 
0 432 5266 
0 567 8893 
0 565 767 
0 470 6371 
0 468 254 
0 466 1215 
0 464 4858 
0 464 1986 
0 418 4858 
0 418 1986 
0 416 1215 
0 414 254 
0 412 6371 
0 533 435 
0 545 9070 
0 543 3117 
0 541 6312 
0 539 3545 
1 2622 1222 
1 2634 1222 
1 2632 1222 
0 523 2303 
0 549 5363 
0 547 5254 
0 554 6310 
0 517 1049 
0 592 1049 
0 593 1049 
0 561 4815 
0 559 5218 
0 573 4839 
0 530 270 
0 526 5946 
0 531 8657 
0 552 8692 
0 548 7355 
0 590 5555 
0 572 2071 
0 584 6341 
0 1061 7815 
0 1055 5730 
0 534 3811 
0 540 3829 
0 1077 3745 
0 1115 6025 
0 1083 4444 
0 1081 2381 
0 1109 4691 
0 1105 6210 
0 1099 9274 
0 1061 5446 
0 1053 5529 
0 1068 8643 
0 1065 8575 
0 1045 294 
1 2200 8328 
1 2189 8328 
1 2191 8328 
0 1079 1402 
0 1077 9884 
0 1086 8590 
0 1092 7366 
0 1089 2717 
0 1068 9227 
0 1067 9008 
0 1331 9510 
0 1108 9175 
0 1106 2192 
0 1101 5634 
0 1100 5634 
0 1315 3466 
0 1285 2923 
0 1277 7277 
0 1275 8799 
0 1275 310 
0 1273 8775 
0 1268 8627 
0 1301 5904 
0 1325 308 
0 1278 9344 
0 155 3593 
0 1294 4016 
0 1292 8646 
0 95 2945 
1 2348 3930 
1 2369 3930 
1 2370 3930 
1 2352 3930 
1 2367 3930 
1 2347 747 
1 2372 747 
1 2358 747 
1 2357 747 
1 2375 747 
1 2374 747 
0 240 1062 
0 149 1062 
0 149 9192 
0 1302 1062 
0 113 8068 
1 1574 1172 
1 1024 104 
1 1054 8065 
1 1012 2034 
1 1012 724 
1 1007 8065 
1 996 2432 
1 996 1172 
1 1026 2319 
1 1013 724 
1 1015 724 
1 1014 724 
1 1025 104 
1 1025 2319 
1 995 2432 
1 1596 8192 
1 997 2432 
1 1006 8019 
1 1004 8019 
1 1586 8019 
1 1005 8019 
1 1564 8019 
1 1045 2319 
1 1033 2319 
1 1032 2319 
1 1034 2319 
1 1570 8192 
1 1575 8192 
1 1597 8192 
1 1583 8192 
1 1576 8192 
1 1576 2970 
1 1581 2970 
1 1589 8192 
1 1590 8192 
1 1590 2970 
1 1577 2319 
1 1591 8192 
1 1592 2970 
0 141 9488 
0 1311 4852 
0 1308 3224 
0 127 7695 
0 1318 9410 
0 246 4359 
0 170 2347 
0 160 9145 
0 157 8385 
0 154 4359 
0 174 2347 
0 159 2347 
0 99 9636 
0 243 7920 
0 151 7920 
0 244 7920 
1 835 4195 
0 121 3957 
0 121 2848 
1 1601 2301 
1 1571 2301 
1 1582 2301 
1 1577 2301 
1 1588 2301 
1 1587 2301 
1 1579 2301 
1 1578 2301 
0 134 9385 
0 1465 565 
0 1465 2178 
0 1465 2066 
0 1458 2178 
0 1457 565 
0 1457 2066 
0 1459 2178 
0 102 8629 
0 280 4993 
0 241 4993 
0 148 4993 
0 124 6966 
