ITEM: TIMESTEP
20000000
ITEM: NUMBER OF ENTRIES
575
ITEM: BOX BOUNDS ff ff ff
-0.01 0.45
-0.15 0.15
-0.08 0.1
ITEM: ENTRIES c_pwc[1] c_pwc[2] c_pwc[3] 
0 884 2450 
0 884 2046 
0 884 2017 
0 884 32 
0 884 226 
0 884 1188 
0 884 1842 
0 884 583 
0 884 1159 
0 854 2419 
0 854 1497 
0 854 2250 
0 854 680 
0 854 2291 
0 854 727 
0 854 1737 
0 854 1369 
0 854 1262 
0 854 2046 
0 854 1241 
0 854 184 
0 854 1815 
0 854 1723 
0 854 2168 
0 854 1834 
0 854 928 
0 854 1816 
0 854 1677 
0 854 1623 
0 854 2092 
0 854 633 
0 850 399 
0 850 1030 
0 850 64 
0 918 1293 
0 916 165 
0 914 165 
0 912 388 
0 910 388 
0 885 399 
0 885 1030 
0 885 64 
0 853 861 
0 802 388 
0 798 165 
0 796 1293 
0 795 1293 
0 855 871 
0 852 1398 
0 852 1565 
0 852 586 
0 852 814 
0 852 712 
0 852 104 
0 852 1819 
0 894 602 
0 894 1744 
0 894 1434 
0 894 1143 
0 894 2131 
0 894 2212 
0 894 588 
0 894 2016 
0 894 1288 
0 894 1878 
0 894 1207 
0 894 623 
0 894 2192 
0 894 2206 
0 855 341 
0 855 2164 
0 855 1237 
0 855 594 
0 855 1179 
0 855 1351 
0 855 2357 
0 855 1547 
0 855 1826 
0 855 828 
0 855 2014 
0 855 730 
0 855 2240 
0 855 1274 
0 852 148 
0 852 1190 
0 854 1541 
0 854 218 
0 854 1347 
0 854 307 
0 854 1925 
0 934 540 
0 933 1627 
0 933 540 
0 933 975 
0 938 2465 
1 2701 2405 
1 2700 2405 
1 2699 2405 
1 2696 2405 
1 2727 2405 
1 2715 2405 
1 2714 2405 
1 2694 2405 
1 2713 2405 
0 885 366 
0 885 1061 
0 885 400 
0 885 187 
0 885 289 
0 885 2271 
0 885 1299 
0 885 183 
0 885 1210 
0 885 719 
0 885 1505 
0 885 725 
0 885 578 
0 853 2113 
0 853 2098 
0 853 1756 
0 853 360 
0 853 1129 
0 853 2289 
0 853 1554 
0 853 607 
0 853 749 
0 853 1967 
0 853 1955 
0 853 202 
0 853 1406 
0 853 284 
0 853 180 
0 853 697 
0 853 956 
0 851 2271 
0 851 1505 
0 851 578 
0 884 394 
0 884 717 
0 884 217 
0 884 808 
0 884 2082 
0 884 1441 
0 884 212 
0 884 284 
0 850 366 
0 850 394 
0 850 1061 
0 850 400 
0 850 187 
0 850 289 
0 850 1299 
0 850 183 
0 850 719 
0 852 915 
0 895 1981 
0 895 497 
0 895 667 
0 895 1162 
0 895 1704 
0 895 2112 
0 894 125 
0 894 678 
0 894 1245 
0 894 868 
0 894 1970 
0 894 19 
0 894 1795 
0 894 1280 
0 894 1885 
0 894 2201 
0 894 304 
0 894 1039 
0 894 895 
0 894 605 
0 894 1524 
0 894 561 
0 852 1147 
0 852 1606 
0 853 1877 
0 853 2263 
1 1856 1862 
1 1851 1862 
1 1852 1862 
1 1879 1862 
1 1691 137 
1 517 1862 
1 560 137 
1 485 1862 
1 486 1862 
1 487 1862 
1 488 1862 
1 1694 137 
0 931 2227 
0 929 269 
0 929 240 
0 949 2423 
0 943 1905 
0 903 358 
0 890 1151 
0 890 1596 
0 888 1069 
0 888 847 
0 888 759 
0 888 1666 
0 888 923 
0 888 2416 
0 888 2336 
0 888 965 
0 888 1489 
0 888 976 
0 888 1380 
0 888 1698 
0 888 1644 
0 888 629 
0 888 2293 
0 888 1355 
0 886 237 
0 886 632 
0 885 237 
0 885 44 
0 885 632 
0 885 1596 
0 851 237 
0 851 44 
0 957 1065 
0 955 35 
0 955 131 
0 955 508 
0 899 1485 
0 898 190 
0 892 643 
0 892 953 
0 892 107 
0 891 1139 
0 887 2067 
0 759 35 
0 759 131 
0 759 508 
0 888 2078 
0 888 1616 
0 888 1874 
0 888 1313 
1 526 1255 
1 505 1376 
1 527 1255 
1 541 1255 
1 547 1255 
1 504 1376 
1 523 1255 
1 546 1255 
1 545 1255 
1 503 1376 
1 544 1255 
1 502 1376 
1 1871 1255 
1 1870 1255 
1 483 1376 
1 1869 1255 
1 1868 1255 
1 1829 1255 
1 1892 1255 
1 1893 1255 
1 1835 1255 
1 1885 1255 
1 481 1376 
1 1834 1255 
1 1865 1255 
1 1866 1255 
1 1887 1255 
1 1888 1255 
1 1874 1255 
1 1873 1255 
1 530 1255 
1 1842 1255 
1 1826 1255 
1 1831 1255 
1 1830 1255 
1 1837 1255 
0 383 848 
0 381 2466 
0 379 1773 
0 377 2381 
0 375 776 
0 373 2174 
0 367 236 
0 366 2432 
0 401 2284 
0 397 417 
0 395 1438 
0 391 2313 
0 389 959 
0 387 1227 
0 437 2037 
0 425 121 
0 423 1671 
0 421 2013 
0 411 1112 
0 405 448 
0 403 2342 
0 384 2312 
0 378 1249 
0 376 2327 
0 364 1192 
0 383 1843 
0 377 2368 
0 375 698 
0 375 1026 
0 371 652 
0 367 1558 
0 365 1192 
0 396 2404 
0 390 931 
0 399 1631 
0 391 1692 
0 438 1883 
0 436 551 
0 428 297 
0 428 1301 
0 418 1086 
0 412 2425 
0 412 403 
0 408 404 
0 406 113 
0 404 1892 
0 415 826 
0 411 700 
0 409 899 
0 535 452 
0 521 877 
0 384 1847 
0 382 812 
0 376 518 
0 374 1705 
0 372 798 
0 370 824 
0 370 149 
0 368 1471 
0 364 458 
0 364 1931 
0 553 1260 
0 549 1532 
0 398 2458 
0 396 2318 
0 396 1329 
0 394 2445 
0 392 2199 
0 579 1239 
0 575 886 
0 571 143 
0 517 1898 
0 438 100 
0 432 941 
0 569 260 
0 567 2178 
0 565 1171 
0 559 2274 
0 412 2161 
0 410 514 
0 537 1479 
0 537 2009 
0 535 912 
0 533 215 
0 531 2406 
0 531 1013 
0 529 1352 
0 527 1918 
0 525 566 
0 525 1538 
0 525 1396 
0 521 62 
0 521 570 
0 521 343 
0 518 127 
0 524 346 
0 553 207 
0 551 916 
0 547 30 
0 547 664 
0 545 2146 
0 545 1076 
0 543 816 
0 543 744 
0 539 753 
0 540 1183 
1 2621 744 
0 589 487 
0 587 601 
0 587 2266 
0 583 1320 
0 581 2364 
0 579 2216 
0 579 1488 
0 579 52 
0 574 797 
0 572 1825 
0 569 238 
0 567 666 
0 565 669 
0 563 1890 
0 563 1161 
0 561 782 
0 561 1353 
0 559 1473 
0 557 491 
0 555 2435 
0 560 101 
0 571 2253 
0 536 675 
0 536 672 
0 534 60 
0 530 1482 
0 528 228 
0 528 1536 
0 524 2193 
0 522 250 
0 520 2182 
0 516 980 
0 537 483 
0 529 1766 
0 523 1422 
0 521 145 
0 521 821 
0 517 980 
0 548 91 
0 542 2047 
0 540 265 
0 549 1693 
0 590 2095 
0 590 832 
0 588 2006 
0 588 790 
0 580 2181 
0 574 2210 
0 572 492 
0 572 2300 
0 587 1511 
0 581 616 
0 573 1225 
0 570 2139 
0 568 408 
0 568 1235 
0 560 1638 
0 558 313 
0 558 1219 
0 556 204 
0 561 81 
0 557 313 
0 557 1219 
0 1063 765 
0 1061 1820 
0 1061 2123 
0 1059 333 
0 1055 2230 
0 1049 696 
0 1049 1128 
0 1045 1687 
0 1042 23 
0 522 1849 
0 1069 692 
0 1069 1304 
0 1067 454 
0 544 1696 
0 540 156 
1 2567 692 
0 1109 1747 
0 1109 34 
0 1107 166 
0 1103 1185 
0 1097 1213 
0 584 271 
0 582 2079 
0 1095 960 
0 1095 1056 
0 1091 858 
0 1091 2065 
0 1089 122 
0 1087 345 
0 1087 27 
0 1085 379 
1 1791 27 
0 1064 123 
0 1062 320 
0 1056 631 
0 1054 144 
0 1052 1958 
0 1049 1394 
0 1049 2167 
0 1048 193 
0 1048 2167 
0 1045 1447 
0 1042 1032 
0 1042 565 
0 1043 1032 
0 1043 565 
0 1080 972 
0 1078 2285 
0 1076 1310 
0 1075 1833 
0 1073 43 
0 1070 1682 
0 1068 348 
0 1065 1142 
0 1111 380 
0 1111 880 
0 1110 1449 
0 1109 902 
0 1105 317 
0 1103 70 
0 1100 522 
0 1096 1091 
0 1094 1663 
0 1089 1377 
0 1097 520 
0 1289 1250 
0 1273 446 
0 1270 167 
0 1064 173 
0 1062 1813 
0 1060 1102 
0 1060 22 
0 1060 6 
0 1058 1133 
0 1056 374 
0 1056 1940 
0 1052 1956 
0 1050 2149 
0 1050 132 
0 1049 527 
1 2222 1426 
0 1305 422 
0 1303 168 
0 1076 874 
0 1074 2262 
0 1072 453 
0 1070 1586 
0 1337 495 
0 1104 1023 
0 1102 542 
0 1319 532 
0 1096 210 
0 1092 1726 
0 1090 1839 
0 1084 1238 
1 1818 375 
0 1286 865 
0 1283 33 
0 1275 410 
0 1275 774 
0 1275 769 
0 1274 2053 
0 1270 563 
0 1301 615 
0 1299 322 
0 1298 108 
0 1297 1202 
0 1293 1041 
0 1293 801 
0 1339 709 
0 1331 241 
0 1331 1175 
0 1330 1175 
0 1329 1477 
0 1327 2138 
0 1323 823 
0 1323 813 
0 1314 878 
0 1297 641 
0 129 1165 
0 129 1664 
0 105 1736 
0 101 66 
0 113 1247 
0 131 213 
0 106 510 
