ITEM: TIMESTEP
20000000
ITEM: NUMBER OF ENTRIES
1442
ITEM: BOX BOUNDS ff ff ff
-0.01 0.45
-0.15 0.15
-0.08 0.1
ITEM: ENTRIES c_pwc[1] c_pwc[2] c_pwc[3] 
0 934 1929 
0 928 9879 
0 926 6289 
0 926 5359 
0 924 6289 
0 924 544 
0 924 6083 
0 924 2303 
0 922 544 
0 922 1441 
0 922 3209 
0 920 1228 
0 920 1565 
0 792 1228 
0 792 1565 
0 790 544 
0 790 6083 
0 790 1441 
0 790 3209 
0 788 6289 
0 788 5359 
0 788 2303 
0 780 1929 
0 787 5359 
0 779 1929 
0 952 17 
0 946 6066 
0 944 2405 
0 942 2405 
0 942 6343 
0 942 788 
0 940 3491 
0 774 253 
0 772 3491 
0 770 2405 
0 770 788 
0 766 6066 
0 760 17 
0 938 253 
0 868 7494 
0 850 6085 
0 850 424 
0 850 918 
0 850 467 
0 850 731 
0 850 732 
0 850 261 
0 850 996 
0 850 244 
0 850 256 
0 850 3896 
0 850 7730 
0 850 755 
0 850 161 
0 850 6248 
0 850 7636 
0 850 5967 
0 850 1834 
0 850 8341 
0 850 2511 
0 850 2462 
0 918 6376 
0 916 110 
0 916 59 
0 916 16 
0 916 2108 
0 914 5063 
0 914 703 
0 914 587 
0 914 7280 
0 912 3058 
0 910 330 
0 910 8658 
0 910 1687 
0 909 1687 
0 885 261 
0 885 996 
0 885 256 
0 885 7730 
0 885 161 
0 885 6248 
0 885 5967 
0 885 1834 
0 885 8341 
0 885 2511 
0 804 1687 
0 802 330 
0 802 8658 
0 800 7280 
0 798 5063 
0 798 703 
0 796 6376 
0 796 110 
0 796 59 
0 796 2108 
0 801 3058 
0 799 587 
0 799 7280 
0 797 16 
0 884 6085 
0 884 424 
0 884 918 
0 884 467 
0 884 731 
0 884 732 
0 884 244 
0 884 3896 
0 884 755 
0 884 7636 
0 884 2462 
0 854 9584 
0 854 4325 
0 854 3031 
0 855 231 
0 855 2260 
0 855 3137 
0 855 4432 
0 855 6708 
0 855 7246 
0 958 4245 
0 954 4672 
0 954 60 
0 954 5332 
0 895 5013 
0 895 8346 
0 895 6179 
0 758 4672 
0 758 60 
0 758 5332 
0 894 5901 
0 894 2272 
0 894 5969 
0 894 5038 
0 894 4567 
0 894 8774 
1 661 2161 
1 660 2161 
1 660 1787 
0 884 7165 
0 884 3351 
0 884 5868 
0 884 2570 
0 884 6341 
0 884 2347 
0 884 482 
0 884 1775 
0 884 9140 
0 884 7343 
0 884 2951 
0 884 1495 
0 884 5852 
0 884 8380 
0 884 2369 
0 884 1937 
0 884 5082 
0 884 1132 
0 884 2098 
0 884 6254 
0 884 7384 
0 884 2801 
0 884 2594 
0 884 9825 
0 884 4376 
0 884 3620 
0 884 9701 
0 884 2772 
0 884 8862 
0 884 360 
0 884 9733 
0 884 4544 
0 884 5551 
0 884 5417 
0 884 2885 
0 884 7583 
0 854 4669 
0 854 2223 
0 854 1271 
0 854 5030 
0 854 925 
0 854 2073 
0 854 8404 
0 854 8698 
0 854 6136 
0 854 6528 
0 854 7355 
0 854 1610 
0 854 342 
0 854 4553 
0 854 1313 
0 854 4032 
0 854 7971 
0 854 8233 
0 854 6063 
0 854 4274 
0 854 986 
0 854 8529 
0 854 7319 
0 854 621 
0 854 7786 
0 854 1 
0 854 3481 
0 854 1537 
0 854 5020 
0 854 1272 
0 854 8824 
0 854 5998 
0 854 7569 
0 854 9666 
0 854 2035 
0 854 9147 
0 854 2984 
0 854 5667 
0 854 9658 
0 854 2534 
0 854 1239 
0 854 6128 
0 854 3351 
0 854 7031 
0 854 7997 
0 854 6096 
0 854 4477 
0 854 94 
0 854 9334 
0 854 6270 
0 854 7565 
0 854 5323 
0 854 3433 
0 854 2403 
0 854 1460 
0 854 7267 
0 854 1351 
0 854 4416 
0 854 5726 
0 854 4682 
0 854 2570 
0 854 3172 
0 854 2327 
0 854 4130 
0 854 3779 
0 854 1307 
0 854 2480 
0 854 2817 
0 853 2570 
0 853 5852 
0 853 1776 
0 853 2186 
0 853 2594 
0 853 2473 
0 853 8912 
0 853 5271 
0 853 1637 
0 853 4272 
0 853 1611 
0 850 2951 
0 852 3172 
0 852 3681 
0 852 3779 
0 852 2817 
0 852 6079 
0 852 9082 
0 852 6153 
0 852 6346 
0 852 1872 
0 852 1123 
0 852 2965 
0 852 3729 
0 852 3500 
0 852 9119 
0 852 5465 
0 852 7005 
0 852 1994 
0 852 616 
0 852 2789 
0 852 2120 
0 852 1258 
0 852 6328 
0 852 4361 
0 852 8152 
0 852 8533 
0 894 4157 
0 894 5674 
0 894 8678 
0 894 8062 
0 894 2584 
0 894 5514 
0 894 5301 
0 894 574 
0 894 234 
0 894 5100 
0 894 1070 
0 894 3163 
0 894 9196 
0 894 7954 
0 894 5091 
0 894 9137 
0 852 3461 
0 855 6786 
0 855 4513 
0 855 4961 
0 855 1559 
0 855 8185 
0 855 9127 
0 855 3632 
0 855 5987 
0 855 140 
0 855 4684 
0 855 7240 
0 855 226 
0 855 2076 
0 855 7055 
0 855 2261 
0 855 4403 
0 855 6152 
0 855 2764 
0 855 6578 
0 855 883 
0 855 721 
0 855 7951 
0 855 5253 
0 855 404 
0 855 8545 
0 854 6529 
0 854 1806 
0 854 3881 
0 922 177 
0 792 177 
0 790 1015 
0 923 1015 
0 791 177 
0 939 7865 
0 938 5763 
1 2706 5398 
1 2706 8532 
1 2706 913 
1 842 289 
1 842 6851 
1 2691 3969 
1 2691 8203 
1 2691 1962 
1 2691 3857 
1 2680 3969 
1 2709 3969 
1 2709 8203 
1 2709 1962 
1 2709 3857 
1 2681 1962 
1 2681 3857 
1 2692 3969 
1 2692 8203 
1 2693 3969 
1 2693 8203 
1 2708 8203 
1 2707 913 
1 2690 2422 
1 2711 3969 
1 2711 8203 
1 2718 3969 
1 2718 8203 
1 2719 8203 
1 2719 5141 
1 2704 5398 
1 2705 5398 
1 2722 5398 
1 2722 8532 
1 2722 913 
1 2722 5141 
1 2721 8532 
1 2721 913 
1 2721 5141 
1 2698 5398 
1 2698 8532 
1 2698 913 
1 2698 4273 
1 110 8180 
1 2717 5398 
1 2717 4273 
1 2717 8914 
1 99 2422 
1 2685 4273 
1 66 2422 
1 66 28 
1 2510 3132 
1 67 2422 
1 67 28 
1 138 8180 
1 103 8180 
1 103 1655 
1 139 8180 
1 2519 3132 
1 101 1009 
1 2651 5141 
1 140 8180 
1 2650 5141 
1 61 28 
1 97 8180 
1 97 1655 
1 97 3030 
1 2667 5141 
1 98 8180 
1 98 1655 
1 98 3030 
1 2508 3499 
1 96 3030 
1 96 1009 
1 125 8180 
1 114 8180 
1 2703 4273 
1 2703 8914 
1 2649 5141 
1 2509 1283 
1 2702 8914 
1 2517 3132 
1 2665 5141 
1 94 8180 
1 94 1655 
1 2724 4273 
1 2723 4273 
1 75 8751 
1 93 3030 
1 2523 155 
1 74 8751 
1 2516 210 
1 91 488 
1 2505 155 
1 2500 210 
1 78 8751 
1 78 5870 
1 78 5492 
1 2653 488 
1 2659 488 
1 73 5870 
1 73 5492 
1 77 7185 
1 77 5870 
1 77 5492 
1 2701 8914 
1 2701 2717 
1 2701 4922 
1 2701 1094 
1 83 7185 
1 82 7185 
1 86 3661 
1 86 4382 
1 2725 4273 
1 2725 8914 
1 2725 2717 
1 2725 4922 
1 2725 1094 
1 80 7185 
1 2696 488 
1 63 3661 
1 63 4382 
1 76 5870 
1 76 5492 
1 87 3661 
1 87 4382 
1 2528 210 
1 2695 488 
1 2506 2180 
1 81 7185 
1 2715 488 
1 85 4382 
1 2714 488 
1 2527 5492 
1 2525 7065 
1 2502 1029 
1 2678 3661 
1 2712 488 
1 2712 3661 
1 2503 7934 
1 2503 4965 
1 2504 7065 
1 2501 7065 
1 2501 7934 
1 787 289 
1 841 6956 
1 841 6851 
0 912 4122 
0 910 5690 
0 910 2548 
0 910 1022 
0 910 2067 
0 910 3129 
0 910 6070 
0 910 2015 
0 910 6006 
0 910 2868 
0 910 5175 
0 910 8640 
0 909 5690 
0 909 2548 
0 909 1022 
0 909 6070 
0 885 550 
0 885 320 
0 885 220 
0 885 3197 
0 885 4046 
0 885 895 
0 885 6278 
0 885 3405 
0 885 442 
0 885 6461 
0 885 5406 
0 885 11 
0 885 901 
0 885 4679 
0 885 2864 
0 885 3413 
0 885 4178 
0 885 299 
0 885 130 
0 885 1963 
0 885 5938 
0 885 2438 
0 885 835 
0 885 166 
0 885 163 
0 885 783 
0 885 5541 
0 885 856 
0 885 3093 
0 885 1143 
0 885 15 
0 885 1265 
0 885 5717 
0 885 19 
0 885 2395 
0 885 2587 
0 885 2895 
0 885 143 
0 885 68 
0 885 2013 
0 885 9042 
0 885 1225 
0 885 8400 
0 885 475 
0 885 2609 
0 885 2314 
0 885 137 
0 885 839 
0 885 270 
0 885 6 
0 885 612 
0 885 3444 
0 885 102 
0 885 131 
0 885 242 
0 885 85 
0 885 1348 
0 885 225 
0 885 647 
0 885 6872 
0 885 108 
0 885 5127 
0 885 1761 
0 885 4143 
0 885 206 
0 885 1544 
0 885 351 
0 885 696 
0 885 6812 
0 804 5690 
0 804 2548 
0 804 1022 
0 804 6070 
0 802 4122 
0 802 1716 
0 911 4122 
0 911 2868 
0 911 1716 
0 911 1758 
0 803 2067 
0 803 3129 
0 803 6070 
0 803 2015 
0 803 6006 
0 803 2868 
0 803 5175 
0 803 1758 
0 803 8640 
0 850 550 
0 850 320 
0 850 220 
0 850 3197 
0 850 4046 
0 850 895 
0 850 6278 
0 850 3405 
0 850 442 
0 850 6461 
0 850 5406 
0 850 11 
0 850 901 
0 850 4679 
0 850 2864 
0 850 3413 
0 850 4178 
0 850 299 
0 850 130 
0 850 1963 
0 850 5938 
0 850 2438 
0 850 835 
0 850 166 
0 850 163 
0 850 783 
0 850 5541 
0 850 856 
0 850 3093 
0 850 1143 
0 850 15 
0 850 5717 
0 850 19 
0 850 2395 
0 850 2587 
0 850 2895 
0 850 143 
0 850 68 
0 850 2013 
0 850 1225 
0 850 8400 
0 850 475 
0 850 2314 
0 850 137 
0 850 839 
0 850 6 
0 850 612 
0 850 131 
0 850 242 
0 850 85 
0 850 1348 
0 850 225 
0 850 108 
0 850 5127 
0 850 1544 
0 850 351 
0 851 1265 
0 851 9042 
0 851 2609 
0 851 270 
0 851 3444 
0 851 102 
0 851 647 
0 851 6872 
0 851 1761 
0 851 4143 
0 851 206 
0 851 696 
0 851 6812 
0 962 293 
0 960 5067 
0 958 5164 
0 958 5857 
0 954 9934 
0 895 1190 
0 895 6774 
0 895 4094 
0 895 250 
0 895 2724 
0 895 6579 
0 895 1360 
0 895 1287 
0 895 3168 
0 895 9076 
0 895 2157 
0 895 6372 
0 895 1681 
0 895 8137 
0 963 293 
0 955 355 
0 759 355 
0 755 5857 
0 753 5067 
0 751 293 
1 662 2972 
1 477 2535 
1 477 3488 
1 1895 6615 
1 1894 4871 
1 1894 3435 
1 1857 4871 
1 1857 9632 
1 1857 3282 
1 1857 4797 
1 1875 4871 
1 1875 9632 
1 1875 3282 
1 1875 4797 
1 1875 6827 
1 1896 3435 
1 1856 6827 
1 1856 2518 
1 1856 1528 
1 1851 6827 
1 1851 2518 
1 1689 1068 
1 1897 3435 
1 1862 4825 
1 1864 3435 
1 1864 8904 
1 1864 7881 
1 1864 228 
1 1864 1528 
1 1863 8904 
1 1863 7881 
1 1881 3435 
1 1881 8904 
1 1881 7881 
1 1881 4825 
1 1881 228 
1 1879 2518 
1 1879 7588 
1 1880 3435 
1 1880 228 
1 563 1068 
1 1692 1068 
1 562 2535 
1 533 1528 
1 536 228 
1 517 1528 
1 1691 7089 
1 1691 663 
1 531 1528 
1 1874 4825 
1 1874 6737 
1 1873 6737 
1 1882 4825 
1 1882 228 
1 528 228 
1 478 2535 
1 478 3488 
1 1883 4825 
1 1883 228 
1 1890 4825 
1 1889 4825 
1 479 2535 
1 560 663 
1 560 2535 
1 1695 663 
1 485 7588 
1 486 7588 
1 1891 4825 
1 1891 6737 
1 487 7588 
1 488 257 
1 1694 663 
1 1849 257 
1 660 1697 
1 660 5578 
1 660 683 
1 660 321 
1 660 1297 
1 660 1749 
1 1844 257 
1 490 257 
1 491 4577 
1 491 5770 
1 491 257 
1 492 257 
1 493 5770 
1 493 257 
1 555 446 
1 495 4577 
1 495 312 
1 495 5770 
1 494 4577 
1 494 312 
1 494 5770 
1 1693 1071 
1 554 446 
1 1697 446 
1 1872 6737 
1 497 312 
1 496 4577 
1 496 312 
1 496 5770 
1 1696 2972 
1 763 7078 
1 763 2972 
1 661 1697 
1 661 5578 
1 661 683 
1 661 321 
1 661 1297 
1 661 1749 
0 853 3432 
0 853 3621 
0 853 7261 
0 853 1484 
0 853 5651 
0 853 7886 
0 853 6325 
0 853 7404 
0 853 2442 
0 853 898 
0 853 8673 
0 853 8917 
0 853 8083 
0 853 7678 
0 853 5746 
0 853 7810 
0 853 5688 
0 853 2905 
0 853 5269 
0 853 7123 
0 853 5879 
0 853 3004 
0 853 8408 
0 853 1076 
0 853 1602 
0 853 1571 
0 853 2690 
0 853 3267 
0 853 9030 
0 853 4025 
0 853 1378 
0 853 2204 
0 853 5838 
0 853 7218 
0 853 6193 
0 853 4000 
0 853 3235 
0 853 5099 
0 853 1564 
0 853 8350 
0 853 7961 
0 853 5976 
0 853 9370 
0 853 8975 
0 853 6350 
0 853 5639 
0 853 5357 
0 853 3436 
0 853 5959 
0 853 8938 
0 853 8567 
0 853 4937 
0 853 7566 
0 853 6705 
0 853 7285 
0 853 5638 
0 853 8199 
0 853 4769 
0 851 2312 
0 851 87 
0 851 1241 
0 851 89 
0 851 562 
0 884 634 
0 884 6606 
0 884 3479 
0 884 1164 
0 884 9283 
0 884 4527 
0 884 9052 
0 884 5453 
0 884 9557 
0 884 5500 
0 884 2636 
0 884 6543 
0 884 1092 
0 884 1121 
0 884 4877 
0 884 207 
0 884 4900 
0 884 2232 
0 884 5377 
0 884 4671 
0 884 2923 
0 884 2047 
0 884 6960 
0 884 9545 
0 884 6563 
0 884 6832 
0 884 7247 
0 884 3572 
0 884 562 
0 885 9749 
0 885 2312 
0 885 87 
0 885 7679 
0 885 1241 
0 885 9779 
0 885 4716 
0 885 89 
0 885 8982 
0 850 634 
0 850 3479 
0 852 3514 
0 852 462 
0 852 2247 
0 852 5937 
0 852 5832 
0 852 2123 
0 852 2241 
0 809 139 
0 894 1736 
0 894 8486 
0 894 6891 
0 894 2877 
0 894 6200 
0 894 8508 
0 894 8909 
0 894 8315 
0 894 1083 
0 894 3176 
0 894 4320 
0 894 9048 
0 894 7174 
0 894 5041 
0 894 5294 
0 894 1788 
0 894 139 
0 852 139 
0 895 6505 
0 895 3616 
0 895 3428 
0 895 7658 
0 895 4661 
0 895 7844 
0 895 5694 
0 895 4856 
0 895 3949 
0 895 7279 
0 895 2038 
0 895 1744 
0 895 6940 
0 935 2436 
0 927 8335 
0 936 4474 
0 930 69 
1 2258 6250 
1 2274 6250 
1 2274 859 
1 2274 6166 
1 2274 7236 
1 2287 6250 
1 2287 859 
1 2287 6166 
1 2276 859 
1 2275 859 
1 2275 7236 
1 2288 7236 
1 2289 859 
1 2289 7236 
1 2286 6487 
1 2285 6487 
1 2300 6487 
1 2303 6487 
1 2302 6487 
0 953 7196 
0 953 3924 
0 951 9933 
0 949 6855 
0 943 5212 
0 760 7196 
0 760 3924 
0 915 9631 
0 915 9761 
0 915 4 
0 911 542 
0 911 1261 
0 911 5 
0 911 595 
0 911 352 
0 911 432 
0 911 2454 
0 904 8649 
0 903 2189 
0 886 3576 
0 886 43 
0 803 1261 
0 803 595 
0 803 3682 
0 803 352 
0 803 432 
0 739 2189 
0 910 3682 
0 885 458 
0 885 43 
0 802 542 
0 802 5 
0 850 458 
0 850 43 
0 889 88 
0 889 175 
0 889 8699 
0 889 623 
0 889 111 
0 889 6762 
0 817 88 
0 817 175 
0 817 8699 
0 817 623 
0 817 111 
0 817 6762 
0 963 759 
0 963 4703 
0 963 3501 
0 963 82 
0 963 262 
0 963 4355 
0 963 48 
0 963 2200 
0 963 437 
0 961 6732 
0 961 2522 
0 961 4695 
0 961 1088 
0 961 2216 
0 961 26 
0 961 5427 
0 961 437 
0 959 439 
0 959 4479 
0 959 333 
0 959 132 
0 959 1605 
0 959 349 
0 957 7153 
0 957 4554 
0 957 796 
0 957 5257 
0 957 9190 
0 957 3025 
0 957 1583 
0 955 438 
0 955 380 
0 955 2573 
0 955 9886 
0 955 7030 
0 955 5478 
0 955 6281 
0 955 4271 
0 955 3929 
0 955 445 
0 955 9169 
0 955 6479 
0 955 5064 
0 955 9246 
0 955 305 
0 955 915 
0 893 2165 
0 893 8921 
0 892 3827 
0 892 237 
0 759 438 
0 759 380 
0 759 7030 
0 759 5478 
0 759 6281 
0 759 3929 
0 759 9169 
0 759 6479 
0 759 5064 
0 759 9246 
0 759 305 
0 759 915 
0 757 7153 
0 757 4554 
0 757 5257 
0 757 9190 
0 757 3025 
0 757 1583 
0 755 439 
0 755 4479 
0 755 333 
0 755 132 
0 755 1605 
0 755 349 
0 753 6732 
0 753 2522 
0 753 4695 
0 753 1088 
0 753 2216 
0 753 26 
0 753 5427 
0 751 759 
0 751 4703 
0 751 3501 
0 751 82 
0 751 262 
0 751 4355 
0 751 48 
0 751 2200 
0 751 437 
0 895 8068 
0 895 8921 
0 758 2573 
0 758 4271 
0 758 445 
0 756 796 
0 891 3842 
1 512 5889 
1 512 1403 
1 511 5889 
1 511 1403 
1 566 431 
1 1686 2188 
1 510 5889 
1 510 1403 
1 508 3312 
1 508 5889 
1 507 3312 
1 507 523 
1 506 3312 
1 506 523 
1 650 2188 
1 526 1067 
1 1687 3143 
1 527 1067 
1 541 1067 
1 505 3312 
1 505 523 
1 547 523 
1 1872 4450 
1 524 1067 
1 504 3312 
1 504 1956 
1 523 1067 
1 545 523 
1 503 1956 
1 503 523 
1 502 1956 
1 1871 1067 
1 1871 4450 
1 1870 1067 
1 1870 4450 
1 1869 1067 
1 1869 4450 
1 1868 1067 
1 1868 4450 
1 1893 4450 
1 500 866 
1 1698 4952 
1 1699 2271 
1 1865 1321 
1 1867 4450 
1 1867 5643 
1 1859 1956 
1 1859 1321 
1 1859 112 
1 1888 1321 
1 1886 4450 
1 1886 5643 
1 1696 101 
1 1876 866 
1 1858 344 
1 655 6170 
1 655 4952 
1 655 2100 
1 655 1672 
1 1877 1321 
1 1877 112 
1 1877 344 
1 763 429 
1 763 6170 
1 763 54 
1 763 2100 
1 763 3042 
1 763 1672 
1 657 4952 
1 656 4952 
1 651 2188 
1 1689 8046 
1 513 5889 
1 513 1403 
1 1873 1067 
0 889 2835 
0 889 4128 
0 889 8804 
0 888 4367 
0 888 4681 
0 888 9836 
0 888 7214 
0 888 1774 
0 888 5096 
0 888 7108 
0 888 4099 
0 888 9684 
0 888 714 
0 888 4858 
0 888 9753 
0 888 1391 
0 888 6506 
0 888 5887 
0 888 9255 
0 888 7848 
0 888 8305 
0 888 1745 
0 888 3439 
0 888 2493 
0 888 680 
0 888 6423 
0 888 3933 
0 888 2782 
0 888 6890 
0 888 9432 
0 888 2536 
0 888 3194 
0 888 9566 
0 888 9427 
0 888 8498 
0 888 34 
0 888 4029 
0 888 6124 
0 888 167 
0 888 316 
0 888 1004 
0 888 71 
0 888 81 
0 888 217 
0 817 71 
0 816 167 
0 816 81 
0 815 316 
0 815 1004 
0 815 217 
0 853 7371 
0 853 5209 
0 853 8804 
0 853 8435 
0 851 2521 
0 851 1036 
0 851 2857 
0 890 3445 
0 890 2586 
0 890 8342 
0 886 1036 
0 886 8422 
0 886 3225 
0 886 975 
0 885 2521 
0 885 1036 
0 885 2857 
0 885 7793 
0 885 8342 
0 891 6790 
0 891 2175 
0 891 8659 
0 891 2721 
0 887 7275 
0 887 6546 
0 887 251 
0 809 235 
0 893 4828 
0 892 4634 
0 888 9442 
0 888 4518 
0 853 235 
0 385 5907 
0 381 4597 
0 371 7269 
0 367 9195 
0 367 5381 
0 397 9820 
0 391 5970 
0 433 9548 
0 427 2580 
0 421 2777 
0 419 1888 
0 365 4806 
0 436 8038 
0 413 3839 
0 403 3320 
0 403 227 
0 384 9636 
0 383 9636 
0 482 1562 
0 400 1562 
0 394 8507 
0 399 3280 
0 399 1562 
0 389 9741 
0 426 3184 
0 426 9598 
0 466 6184 
0 464 6935 
0 464 7119 
0 418 6935 
0 418 7119 
0 418 1851 
0 416 9678 
0 416 6184 
0 463 1851 
0 419 1851 
1 1719 3658 
1 1707 3658 
1 1705 3658 
0 533 8761 
0 496 116 
0 386 116 
0 374 4857 
0 480 3140 
0 402 3140 
0 571 3018 
0 444 7216 
0 438 7216 
0 438 1095 
0 425 5150 
0 565 9606 
0 470 343 
0 468 6976 
0 466 7585 
0 464 1671 
0 464 6964 
0 418 1671 
0 418 6964 
0 416 7585 
0 414 6976 
0 412 343 
0 529 751 
0 519 5865 
1 2145 597 
1 2147 597 
1 2156 597 
0 553 867 
0 549 9824 
0 539 4733 
0 581 5123 
0 561 3674 
0 530 9225 
1 2167 955 
1 2178 955 
1 2169 955 
0 546 4749 
0 553 9722 
0 586 1664 
0 582 6338 
0 589 9751 
0 581 7849 
0 577 6914 
0 1057 2307 
0 1073 3231 
0 1071 7208 
0 1055 9116 
0 1049 5223 
0 1048 3997 
0 1045 8284 
1 2189 2252 
1 2191 2252 
1 2200 2252 
0 1080 8815 
0 1073 1358 
0 1073 9222 
0 1069 459 
0 1067 1807 
0 1105 1476 
0 1103 6495 
0 1091 9575 
0 1273 7732 
0 1058 6077 
0 1052 9576 
0 1042 2016 
0 1291 5098 
0 1080 2168 
0 1104 9331 
0 1104 9494 
0 1098 5093 
0 1092 8812 
0 1086 5155 
0 1281 1678 
0 1275 6684 
0 1305 5891 
0 1335 4268 
0 1331 9669 
0 1313 4423 
0 1311 2899 
0 1311 9346 
0 1307 7487 
0 103 5750 
0 99 412 
0 1274 7291 
1 2344 2853 
1 2344 39 
1 2348 5983 
1 2369 5983 
1 2370 5983 
1 2352 5983 
1 2367 5983 
1 2361 7187 
1 2361 39 
1 2378 7187 
1 2378 39 
1 2347 2408 
1 2372 2408 
1 2341 39 
1 2358 2408 
1 2358 2853 
1 2357 2408 
1 2357 2853 
1 2379 39 
1 2380 39 
1 2375 2408 
1 2375 2853 
1 2375 39 
1 2374 2408 
1 2374 2853 
1 2356 2853 
1 2373 2853 
0 174 1858 
0 159 1858 
0 1306 4617 
0 1303 6122 
0 1300 5072 
0 1298 1077 
0 1292 1858 
0 111 8231 
0 1342 2714 
0 1340 2948 
0 1335 5265 
0 1326 9301 
1 1592 5256 
1 1593 5256 
1 1580 5256 
1 1581 5256 
0 1308 6839 
0 1468 4154 
0 1469 8778 
0 103 4620 
0 101 9511 
0 95 5362 
0 93 605 
0 92 605 
0 248 2421 
0 241 642 
0 160 8095 
0 156 2421 
0 155 7713 
0 155 197 
0 155 2381 
0 155 2421 
0 154 197 
0 154 2381 
0 149 642 
0 148 9063 
0 113 1487 
0 108 1733 
0 258 2940 
0 195 2940 
0 94 2940 
