ITEM: TIMESTEP
20000000
ITEM: NUMBER OF ENTRIES
1622
ITEM: BOX BOUNDS ff ff ff
-0.01 0.45
-0.15 0.15
-0.08 0.1
ITEM: ENTRIES c_pwc[1] c_pwc[2] c_pwc[3] 
0 828 3897 
0 936 3024 
0 932 3897 
0 930 3839 
0 930 2081 
0 928 6435 
0 926 4973 
0 924 101 
0 924 2135 
0 924 5266 
0 922 101 
0 920 4251 
0 920 2045 
0 920 4212 
0 792 2045 
0 792 4212 
0 790 101 
0 790 2135 
0 788 5266 
0 786 6435 
0 786 4973 
0 784 2081 
0 782 3897 
0 778 3024 
0 783 3839 
0 838 3024 
0 952 158 
0 950 522 
0 950 496 
0 948 6083 
0 946 157 
0 944 9692 
0 942 4931 
0 940 7300 
0 772 4931 
0 768 9692 
0 766 157 
0 764 6083 
0 762 522 
0 762 496 
0 760 158 
0 896 7524 
0 884 980 
0 884 1245 
0 884 9843 
0 884 7986 
0 884 7164 
0 884 786 
0 884 1661 
0 884 6916 
0 884 2057 
0 884 1865 
0 884 547 
0 884 505 
0 884 3025 
0 884 2936 
0 884 905 
0 884 1076 
0 884 7359 
0 884 1085 
0 884 2007 
0 884 7047 
0 884 7422 
0 884 9145 
0 884 5960 
0 884 3321 
0 884 1274 
0 884 3781 
0 884 2849 
0 884 9731 
0 884 1025 
0 884 5887 
0 884 3023 
0 884 5828 
0 884 5961 
0 884 607 
0 884 8639 
0 884 1388 
0 884 2845 
0 884 3391 
0 884 8162 
0 884 8991 
0 884 6734 
0 884 499 
0 884 4565 
0 884 8751 
0 884 8771 
0 857 4298 
0 854 7366 
0 854 2027 
0 854 7821 
0 854 2886 
0 854 1410 
0 854 9493 
0 854 2065 
0 854 2792 
0 854 3821 
0 854 6524 
0 854 3463 
0 854 3397 
0 854 8220 
0 854 1673 
0 854 598 
0 854 9413 
0 854 1660 
0 854 5420 
0 854 8981 
0 854 729 
0 854 2201 
0 854 6657 
0 854 6323 
0 854 5041 
0 854 7216 
0 854 1485 
0 854 9283 
0 854 2132 
0 854 5521 
0 854 8360 
0 854 3393 
0 854 9554 
0 854 2914 
0 854 9361 
0 854 7028 
0 854 1830 
0 854 7640 
0 854 7744 
0 854 738 
0 854 8048 
0 854 3034 
0 854 6241 
0 854 2959 
0 854 4267 
0 854 3786 
0 854 7291 
0 854 2021 
0 854 1958 
0 854 5518 
0 854 3282 
0 854 7629 
0 854 7045 
0 854 1750 
0 854 8909 
0 850 980 
0 850 1245 
0 850 1661 
0 850 1865 
0 850 547 
0 850 505 
0 850 1085 
0 850 2007 
0 850 530 
0 850 3798 
0 850 5960 
0 850 5770 
0 850 2849 
0 850 1457 
0 850 1326 
0 850 9550 
0 850 3956 
0 850 3490 
0 850 439 
0 850 1383 
0 850 307 
0 850 8867 
0 850 3298 
0 850 6357 
0 850 499 
0 833 3124 
0 748 7524 
0 916 260 
0 916 1363 
0 916 2616 
0 916 1931 
0 916 8000 
0 916 6944 
0 916 1780 
0 916 7542 
0 916 654 
0 914 1482 
0 914 1363 
0 914 3410 
0 914 310 
0 914 9318 
0 914 719 
0 914 7958 
0 912 1482 
0 912 3124 
0 912 6547 
0 912 907 
0 910 6547 
0 910 468 
0 910 1340 
0 910 7524 
0 885 530 
0 885 3798 
0 885 5770 
0 885 1457 
0 885 1326 
0 885 9550 
0 885 3956 
0 885 3490 
0 885 439 
0 885 1383 
0 885 307 
0 885 8867 
0 885 3298 
0 885 6357 
0 853 5970 
0 853 2075 
0 853 1495 
0 853 6513 
0 853 3781 
0 853 3543 
0 853 5788 
0 853 2970 
0 853 7632 
0 853 5496 
0 853 5123 
0 853 3383 
0 853 2220 
0 853 7421 
0 853 8179 
0 853 2588 
0 853 2823 
0 802 3124 
0 802 6547 
0 802 468 
0 802 1340 
0 800 1482 
0 800 3410 
0 800 907 
0 798 260 
0 798 1363 
0 798 2616 
0 798 310 
0 798 9318 
0 798 719 
0 798 7542 
0 798 7958 
0 796 1931 
0 796 8000 
0 796 6944 
0 796 1780 
0 796 654 
0 852 2134 
0 852 119 
0 852 4399 
0 852 4375 
0 852 2738 
0 852 8390 
0 852 6749 
0 852 3746 
0 852 3915 
0 852 1147 
0 852 1266 
0 852 1985 
0 852 986 
0 852 5581 
0 852 3179 
0 852 3933 
0 852 694 
0 852 2256 
0 852 8020 
0 852 6275 
0 852 1748 
0 852 1369 
0 852 4043 
0 908 67 
0 908 427 
0 894 2791 
0 894 8596 
0 894 6515 
0 894 5490 
0 894 5937 
0 894 5216 
0 894 7052 
0 894 8921 
0 894 2758 
0 894 8720 
0 894 5694 
0 894 285 
0 894 7380 
0 894 7534 
0 894 9081 
0 894 5621 
0 894 4362 
0 894 7941 
0 894 6186 
0 894 135 
0 894 3675 
0 894 2899 
0 894 3080 
0 894 7257 
0 894 4932 
0 894 4747 
0 894 8564 
0 894 8435 
0 894 8581 
0 894 1999 
0 894 5068 
0 894 7492 
0 894 4818 
0 894 973 
0 855 1562 
0 855 2392 
0 855 5634 
0 855 7760 
0 855 2448 
0 855 7494 
0 855 8698 
0 855 9108 
0 855 2296 
0 855 3531 
0 855 1223 
0 855 1928 
0 855 2829 
0 855 1840 
0 855 8202 
0 855 4431 
0 855 9222 
0 855 1575 
0 855 5874 
0 855 5650 
0 855 4261 
0 855 3373 
0 855 2853 
0 855 3836 
0 855 4794 
0 855 3636 
0 852 5141 
0 736 67 
0 736 427 
0 960 7392 
0 956 9348 
0 954 5798 
0 954 289 
0 895 67 
0 895 447 
0 895 427 
0 758 5798 
0 758 289 
0 750 67 
0 854 479 
0 854 7195 
0 854 6 
0 854 2386 
0 854 3472 
0 854 5082 
0 854 1095 
0 854 3369 
1 659 253 
1 659 24 
1 661 3708 
1 661 1759 
1 660 3708 
1 660 253 
1 660 24 
1 660 1759 
0 930 9830 
0 788 2195 
0 925 2195 
0 946 7983 
0 940 9868 
0 953 9716 
0 954 9716 
1 2706 3870 
1 2706 6126 
1 2706 8243 
1 2706 766 
1 2691 1688 
1 2691 6667 
1 2691 264 
1 2691 71 
1 2691 4902 
1 2691 7245 
1 2691 194 
1 842 263 
1 842 1073 
1 842 1103 
1 842 434 
1 2681 264 
1 2709 1688 
1 2709 6667 
1 2709 264 
1 2709 71 
1 2709 4902 
1 2709 7245 
1 2709 194 
1 2680 6667 
1 2677 194 
1 2692 1688 
1 2692 6667 
1 2692 7245 
1 2692 453 
1 2693 1688 
1 2693 6667 
1 2693 7245 
1 2693 453 
1 2708 1688 
1 2708 6667 
1 2708 7245 
1 2708 453 
1 2707 766 
1 2690 453 
1 2710 1362 
1 2710 453 
1 2711 1688 
1 2711 6667 
1 2711 7245 
1 2711 453 
1 2718 1688 
1 2718 6667 
1 2719 1688 
1 2719 6667 
1 2676 1362 
1 2705 3870 
1 2705 766 
1 2704 3870 
1 2704 766 
1 2721 6126 
1 2721 8243 
1 2721 766 
1 2722 3870 
1 2722 6126 
1 2722 8243 
1 2722 766 
1 2698 3870 
1 2698 6126 
1 2698 8243 
1 2698 766 
1 2698 9713 
1 2717 3870 
1 2717 9713 
1 2717 4637 
1 66 5973 
1 102 8737 
1 2510 3456 
1 67 5973 
1 103 5662 
1 103 8737 
1 139 926 
1 138 926 
1 2507 6092 
1 2519 3456 
1 101 8737 
1 2642 453 
1 140 926 
1 97 5662 
1 61 1362 
1 61 5973 
1 98 5662 
1 2667 453 
1 70 1362 
1 125 926 
1 71 1362 
1 71 453 
1 2703 926 
1 2703 4637 
1 2702 926 
1 2702 4637 
1 2702 2473 
1 115 926 
1 126 926 
1 94 5662 
1 94 3269 
1 127 926 
1 75 3076 
1 116 926 
1 95 3269 
1 72 3076 
1 72 1362 
1 72 1450 
1 2523 2104 
1 74 3076 
1 2516 1450 
1 2672 7391 
1 2674 7391 
1 2673 7391 
1 2671 7391 
1 91 8029 
1 2500 625 
1 78 1584 
1 2505 2104 
1 92 8029 
1 92 3269 
1 2654 7391 
1 2656 7391 
1 2663 7391 
1 2655 7391 
1 2657 7391 
1 77 7591 
1 77 1584 
1 2701 4637 
1 2701 2473 
1 2701 5475 
1 2701 3376 
1 86 33 
1 86 4905 
1 2700 926 
1 83 7591 
1 83 1584 
1 82 7591 
1 82 1584 
1 2725 4637 
1 2725 2473 
1 2725 5475 
1 2725 3376 
1 80 33 
1 63 4905 
1 79 33 
1 87 4905 
1 76 1584 
1 62 4905 
1 2528 2465 
1 2695 8029 
1 85 33 
1 85 4905 
1 2499 2465 
1 2499 601 
1 81 7591 
1 2506 3678 
1 2506 1710 
1 2513 4905 
1 2513 3678 
1 2527 2465 
1 2524 4905 
1 2502 2465 
1 2712 8029 
1 2503 1596 
1 2503 3678 
1 2504 967 
1 2501 967 
1 2501 263 
1 2501 378 
1 787 865 
1 787 4421 
1 841 1073 
1 841 1103 
1 841 434 
0 910 7042 
0 910 1693 
0 910 2410 
0 910 868 
0 910 1892 
0 910 8584 
0 910 2982 
0 909 7042 
0 909 1107 
0 909 8584 
0 885 2297 
0 885 354 
0 885 636 
0 885 4331 
0 885 5155 
0 885 3207 
0 885 1706 
0 885 6420 
0 885 9742 
0 885 231 
0 885 7102 
0 885 6505 
0 885 269 
0 885 2988 
0 885 1427 
0 885 1645 
0 885 6859 
0 885 4250 
0 885 213 
0 885 1437 
0 885 51 
0 885 1288 
0 885 5304 
0 885 306 
0 885 558 
0 885 3290 
0 885 6237 
0 885 4351 
0 885 467 
0 885 166 
0 885 111 
0 885 217 
0 885 3483 
0 885 1057 
0 885 9294 
0 885 222 
0 885 133 
0 885 8878 
0 885 1107 
0 885 1574 
0 885 27 
0 885 808 
0 885 212 
0 885 196 
0 885 682 
0 885 3831 
0 885 2504 
0 885 7010 
0 885 507 
0 885 312 
0 885 178 
0 885 705 
0 885 6234 
0 885 8142 
0 885 3470 
0 885 7024 
0 885 73 
0 885 3265 
0 885 574 
0 885 2511 
0 885 2355 
0 885 8680 
0 885 8368 
0 885 700 
0 885 1112 
0 885 2749 
0 885 810 
0 885 332 
0 885 6552 
0 885 9429 
0 885 3874 
0 885 418 
0 885 168 
0 885 3130 
0 885 16 
0 885 9100 
0 885 5122 
0 885 7937 
0 885 254 
0 885 5267 
0 885 577 
0 885 7533 
0 885 1257 
0 885 79 
0 885 592 
0 885 126 
0 885 6148 
0 885 2894 
0 885 480 
0 885 9374 
0 885 8125 
0 885 199 
0 885 232 
0 885 330 
0 885 202 
0 885 9613 
0 885 5758 
0 885 6716 
0 885 9655 
0 885 1786 
0 885 3152 
0 885 6975 
0 853 7214 
0 853 9201 
0 853 8239 
0 853 8822 
0 853 2625 
0 853 3291 
0 853 7477 
0 853 7365 
0 853 1153 
0 853 3869 
0 853 4107 
0 853 4264 
0 853 6683 
0 853 6583 
0 853 9273 
0 853 5683 
0 853 9465 
0 853 5746 
0 853 8216 
0 853 5723 
0 853 1234 
0 853 7959 
0 853 1339 
0 853 8842 
0 853 6943 
0 853 2572 
0 853 2389 
0 853 7309 
0 853 2329 
0 853 8813 
0 853 2677 
0 853 6129 
0 853 7327 
0 853 4900 
0 853 7150 
0 853 6191 
0 853 9101 
0 853 7445 
0 853 1034 
0 853 5360 
0 853 5151 
0 853 6272 
0 853 6796 
0 853 7601 
0 853 2379 
0 853 9600 
0 853 1091 
0 853 3996 
0 853 114 
0 853 8892 
0 853 8320 
0 853 1390 
0 853 2561 
0 853 7701 
0 853 9368 
0 853 4772 
0 853 4515 
0 853 6655 
0 853 5719 
0 853 7166 
0 853 7561 
0 853 7697 
0 851 6237 
0 851 1057 
0 851 133 
0 851 8142 
0 851 3470 
0 851 574 
0 851 2511 
0 851 2355 
0 851 810 
0 851 332 
0 851 3130 
0 851 16 
0 851 5267 
0 851 577 
0 851 7533 
0 851 1257 
0 851 79 
0 851 592 
0 851 126 
0 851 232 
0 851 330 
0 851 202 
0 804 7042 
0 804 1107 
0 804 2410 
0 804 8584 
0 802 191 
0 911 868 
0 911 191 
0 803 1693 
0 803 2410 
0 803 868 
0 803 1892 
0 803 8584 
0 803 2982 
0 884 2905 
0 884 5599 
0 884 1489 
0 884 5750 
0 884 1212 
0 884 7432 
0 884 2291 
0 884 1510 
0 884 6211 
0 884 2810 
0 884 6754 
0 884 9094 
0 884 1493 
0 884 4954 
0 884 5439 
0 884 3609 
0 884 2254 
0 884 5343 
0 884 5746 
0 884 849 
0 884 9473 
0 884 3954 
0 884 8113 
0 884 9400 
0 884 7940 
0 884 3107 
0 884 7150 
0 884 7120 
0 884 3593 
0 884 5422 
0 884 3219 
0 884 6208 
0 884 2108 
0 884 7910 
0 884 7030 
0 884 4175 
0 850 2297 
0 850 354 
0 850 636 
0 850 4331 
0 850 1489 
0 850 5155 
0 850 3207 
0 850 1706 
0 850 1212 
0 850 6420 
0 850 2291 
0 850 231 
0 850 7102 
0 850 6505 
0 850 269 
0 850 2988 
0 850 1427 
0 850 1645 
0 850 6859 
0 850 4250 
0 850 213 
0 850 1437 
0 850 51 
0 850 1288 
0 850 5304 
0 850 306 
0 850 558 
0 850 3290 
0 850 4351 
0 850 467 
0 850 166 
0 850 111 
0 850 217 
0 850 3483 
0 850 222 
0 850 1574 
0 850 27 
0 850 808 
0 850 212 
0 850 196 
0 850 682 
0 850 3831 
0 850 507 
0 850 312 
0 850 178 
0 850 705 
0 850 6234 
0 850 73 
0 850 3265 
0 850 700 
0 850 1112 
0 850 2749 
0 850 3874 
0 850 418 
0 850 168 
0 850 254 
0 850 199 
0 809 1339 
0 809 114 
0 852 8464 
0 852 8594 
0 852 4058 
0 852 8590 
0 852 7154 
0 852 2558 
0 962 1184 
0 960 2097 
0 960 1841 
0 958 2911 
0 954 2233 
0 895 8586 
0 895 7499 
0 895 2070 
0 895 6758 
0 895 8261 
0 895 3112 
0 895 8569 
0 895 1910 
0 895 5836 
0 895 9295 
0 895 3083 
0 895 3902 
0 895 5194 
0 895 7307 
0 895 6400 
0 895 7133 
0 895 5976 
0 895 2405 
0 895 7174 
0 895 7196 
0 895 9324 
0 895 5399 
0 895 6814 
0 895 5289 
0 895 7518 
0 895 436 
0 895 3190 
0 895 4361 
0 955 329 
0 759 2233 
0 759 329 
0 753 1841 
0 751 1184 
0 894 2325 
0 894 7229 
0 894 909 
0 894 3392 
0 894 2358 
0 894 6611 
0 894 5010 
0 894 3582 
0 894 4834 
0 894 2873 
0 894 6429 
0 894 8312 
0 894 1416 
0 894 7160 
0 894 1776 
0 894 2877 
0 894 1549 
0 894 569 
0 894 1261 
0 894 409 
0 894 6392 
0 894 6067 
0 894 7081 
0 894 8973 
0 894 1770 
0 894 1232 
0 894 1344 
0 894 9071 
1 662 7626 
1 477 521 
1 1895 1357 
1 1895 7267 
1 1894 2464 
1 1894 9208 
1 1850 1357 
1 1857 1357 
1 1857 7267 
1 1857 5054 
1 1857 2464 
1 1857 5105 
1 654 44 
1 1875 1357 
1 1875 7267 
1 1875 5054 
1 1875 2464 
1 1875 8412 
1 1875 4164 
1 1896 9208 
1 658 44 
1 1856 8412 
1 1856 4164 
1 1856 4940 
1 1851 8412 
1 1897 9208 
1 1862 5376 
1 1862 7180 
1 1862 4374 
1 1862 1139 
1 1862 2711 
1 1862 1785 
1 1864 9208 
1 1864 8353 
1 1864 5453 
1 1864 5105 
1 1864 7180 
1 1864 4940 
1 1863 8353 
1 1863 5453 
1 1863 7180 
1 1863 1139 
1 1881 9208 
1 1881 8353 
1 1881 5453 
1 1881 5376 
1 1881 7180 
1 1881 4374 
1 1879 5105 
1 1880 9208 
1 1880 5105 
1 1880 4940 
1 1692 8585 
1 513 255 
1 514 255 
1 516 521 
1 533 4940 
1 476 521 
1 1691 2664 
1 1861 3039 
1 1861 1785 
1 1874 4374 
1 1874 1139 
1 1874 2711 
1 1874 3039 
1 1874 1785 
1 1873 3039 
1 1873 1785 
1 1882 4374 
1 1882 1139 
1 1882 2711 
1 478 521 
1 1883 4374 
1 1883 1139 
1 1883 2711 
1 1889 4374 
1 1889 1139 
1 1889 2711 
1 479 521 
1 1890 4374 
1 1890 1139 
1 1890 2711 
1 560 2664 
1 1695 2664 
1 485 5892 
1 485 521 
1 485 2964 
1 486 5892 
1 486 2964 
1 1891 4374 
1 1891 2711 
1 1891 1785 
1 487 5892 
1 487 2964 
1 1848 9425 
1 488 5892 
1 488 2964 
1 488 9425 
1 1694 6290 
1 1694 1381 
1 1694 2664 
1 1849 9425 
1 660 487 
1 660 4206 
1 660 275 
1 660 369 
1 660 412 
1 660 2190 
1 660 14 
1 660 5207 
1 660 1755 
1 1844 9425 
1 490 9425 
1 493 4417 
1 555 1381 
1 495 4417 
1 494 4417 
1 1693 6290 
1 1693 1381 
1 1697 1381 
1 511 255 
1 527 3039 
1 541 3039 
1 525 3039 
1 1871 3039 
1 1892 3039 
1 1884 3039 
1 1893 3039 
1 1885 3039 
1 496 4417 
1 1696 2975 
1 763 8359 
1 661 412 
1 661 2190 
1 661 14 
1 661 5207 
1 661 1755 
0 931 9949 
0 927 6426 
0 927 3399 
1 2274 8713 
1 2287 8713 
1 841 5313 
1 842 5313 
0 911 1048 
0 911 13 
0 911 732 
0 911 3364 
0 911 96 
0 911 48 
0 903 7854 
0 890 9826 
0 890 3727 
0 890 9167 
0 890 5930 
0 889 7854 
0 889 3691 
0 889 9928 
0 889 4457 
0 889 520 
0 889 9755 
0 889 2095 
0 889 599 
0 889 4700 
0 888 9895 
0 888 7475 
0 888 9035 
0 888 2178 
0 888 8527 
0 888 9691 
0 888 3421 
0 888 8447 
0 888 228 
0 888 6908 
0 888 2024 
0 888 2347 
0 888 8963 
0 888 2819 
0 888 9420 
0 888 9053 
0 888 6999 
0 888 9402 
0 888 4827 
0 888 4255 
0 888 3594 
0 888 233 
0 888 6861 
0 888 9424 
0 888 994 
0 888 3730 
0 888 2352 
0 888 1761 
0 886 318 
0 886 10 
0 886 342 
0 886 53 
0 886 3973 
0 886 265 
0 886 1068 
0 886 147 
0 886 484 
0 886 7427 
0 886 9723 
0 886 9709 
0 886 4944 
0 886 9190 
0 803 1048 
0 803 2739 
0 803 732 
0 803 3364 
0 803 96 
0 803 48 
0 910 2739 
0 910 3364 
0 885 5164 
0 885 2530 
0 885 63 
0 885 38 
0 885 551 
0 885 1024 
0 885 493 
0 885 9315 
0 885 318 
0 885 10 
0 885 342 
0 885 53 
0 885 3973 
0 885 265 
0 885 1068 
0 885 147 
0 885 484 
0 885 908 
0 885 5801 
0 885 9709 
0 885 9190 
0 885 3150 
0 853 2352 
0 853 8836 
0 853 7317 
0 851 63 
0 851 38 
0 851 551 
0 851 1024 
0 851 493 
0 851 10 
0 851 342 
0 851 53 
0 851 3973 
0 851 265 
0 851 1068 
0 851 147 
0 851 484 
0 851 908 
0 802 13 
0 850 5164 
0 850 2530 
0 850 318 
1 1519 8114 
1 1538 8114 
1 1504 8114 
0 963 3557 
0 963 142 
0 963 1102 
0 963 557 
0 963 3116 
0 963 555 
0 963 3574 
0 963 1114 
0 963 320 
0 963 8824 
0 963 2321 
0 963 464 
0 961 8309 
0 961 1897 
0 961 583 
0 961 348 
0 961 3930 
0 961 1762 
0 961 726 
0 961 1743 
0 961 1712 
0 961 4349 
0 961 2321 
0 959 4216 
0 959 12 
0 959 3287 
0 959 7319 
0 959 2192 
0 959 9724 
0 959 3865 
0 959 2431 
0 959 9360 
0 959 9956 
0 959 7114 
0 957 7690 
0 957 989 
0 957 4732 
0 957 1729 
0 957 1038 
0 957 1115 
0 957 932 
0 957 47 
0 955 925 
0 955 4105 
0 955 4556 
0 955 3243 
0 955 2242 
0 955 4884 
0 955 4030 
0 955 1080 
0 955 1290 
0 955 1291 
0 955 615 
0 955 4060 
0 955 3548 
0 955 934 
0 955 696 
0 955 3458 
0 955 745 
0 893 3575 
0 893 3432 
0 893 6209 
0 893 4346 
0 892 6638 
0 892 125 
0 892 4253 
0 892 9274 
0 892 7804 
0 892 5465 
0 892 8620 
0 892 2765 
0 891 2643 
0 891 4352 
0 891 3995 
0 891 525 
0 891 8872 
0 887 2898 
0 887 8398 
0 887 8556 
0 887 5375 
0 759 4105 
0 759 4556 
0 759 3243 
0 759 4884 
0 759 4030 
0 759 1291 
0 759 615 
0 759 4060 
0 759 3548 
0 759 3458 
0 759 745 
0 757 7690 
0 757 989 
0 757 4732 
0 757 1729 
0 757 1038 
0 757 696 
0 757 1115 
0 757 932 
0 757 47 
0 755 4216 
0 755 12 
0 755 7319 
0 755 2192 
0 755 9724 
0 755 3865 
0 755 2431 
0 753 8309 
0 753 1897 
0 753 583 
0 753 348 
0 753 3930 
0 753 1762 
0 753 726 
0 753 9360 
0 753 1743 
0 753 1712 
0 753 4349 
0 751 3557 
0 751 1102 
0 751 557 
0 751 3116 
0 751 555 
0 751 3574 
0 751 1114 
0 751 320 
0 751 2321 
0 751 464 
0 895 6284 
0 895 8481 
0 758 925 
0 758 2242 
0 758 1080 
0 758 1290 
0 758 934 
0 758 696 
0 754 9360 
0 750 142 
0 888 2219 
0 888 4655 
0 888 6680 
0 888 7872 
0 888 1276 
0 888 1900 
0 888 6824 
0 888 6337 
0 888 3199 
0 888 9344 
0 888 259 
1 1690 1126 
1 565 1126 
1 566 3634 
1 1686 1438 
1 510 5200 
1 509 5200 
1 509 4598 
1 508 5200 
1 508 4598 
1 543 4598 
1 507 5200 
1 507 4598 
1 650 959 
1 650 2670 
1 548 4598 
1 505 5458 
1 505 5200 
1 505 4598 
1 547 4598 
1 1872 3905 
1 504 5458 
1 557 3634 
1 503 5458 
1 502 5458 
1 502 1400 
1 1871 3905 
1 558 3634 
1 1869 3905 
1 1870 3905 
1 648 2670 
1 1868 3905 
1 1893 3905 
1 481 6293 
1 1834 2720 
1 1698 532 
1 1698 1136 
1 1698 596 
1 499 6293 
1 498 6293 
1 497 6293 
1 552 6293 
1 1699 6739 
1 1865 2720 
1 1867 7124 
1 1867 3905 
1 1859 1400 
1 1859 2720 
1 1859 2795 
1 1859 423 
1 1888 2720 
1 1855 1400 
1 1886 7124 
1 1886 3905 
1 1854 1400 
1 1696 6739 
1 1876 1400 
1 1876 2720 
1 1858 4723 
1 655 596 
1 655 374 
1 655 1681 
1 655 234 
1 1877 2795 
1 1877 423 
1 1877 4723 
1 763 800 
1 763 374 
1 763 1681 
1 649 2670 
1 657 596 
1 657 2670 
1 656 596 
1 656 2670 
1 656 234 
1 651 959 
1 554 6293 
0 383 4333 
0 379 8934 
0 373 9906 
0 369 9751 
0 369 3896 
0 367 8324 
0 399 9815 
0 389 4877 
0 398 1484 
0 431 1637 
0 427 538 
0 421 3649 
0 419 5996 
0 411 1886 
0 405 2090 
0 412 9303 
0 386 3818 
0 378 8557 
0 364 6398 
0 379 9663 
0 482 8046 
0 400 8046 
0 396 9885 
0 392 314 
0 399 277 
0 399 8046 
0 395 760 
0 387 3953 
0 435 8168 
0 429 2797 
0 468 2700 
0 414 2700 
0 410 7260 
0 406 9847 
0 415 8507 
0 413 9621 
0 529 8131 
0 496 3143 
0 386 3143 
0 372 9894 
0 370 416 
0 364 5275 
0 364 7946 
0 549 1504 
0 549 8657 
0 541 9771 
0 486 5766 
0 484 3114 
0 480 1885 
0 402 1885 
0 402 9351 
0 398 3114 
0 398 9717 
0 396 5766 
0 394 4865 
0 388 8757 
0 581 9155 
0 444 1552 
0 444 6267 
0 438 1552 
0 438 6267 
0 420 3359 
0 470 1195 
0 470 6128 
0 468 6162 
0 466 1377 
0 466 8171 
0 464 5036 
0 418 5036 
0 416 1377 
0 416 8171 
0 414 5942 
0 414 6162 
0 412 1195 
0 412 6128 
0 533 2458 
0 525 5948 
0 523 7400 
0 523 613 
0 521 9162 
0 521 2769 
0 519 6697 
0 534 5514 
0 516 8516 
0 541 8263 
0 539 7919 
1 2622 1494 
1 2632 1494 
1 2634 1494 
0 585 7020 
0 581 3270 
0 569 6103 
0 567 2895 
0 563 2991 
0 563 4890 
0 557 9924 
0 555 3451 
0 538 9488 
0 530 8130 
0 550 5851 
0 584 9780 
0 578 2707 
0 576 4367 
0 576 319 
0 572 5544 
0 581 3787 
0 581 2593 
0 568 4501 
0 565 7466 
0 565 8119 
0 1063 4204 
0 1059 7738 
0 1057 8075 
0 1053 1440 
0 1045 3384 
0 1107 6176 
0 584 9017 
0 1095 8014 
0 1081 3819 
0 568 6631 
0 1063 7867 
0 1055 1109 
0 1049 5223 
0 1049 7026 
0 1048 5775 
0 1044 3926 
0 1075 7523 
0 1067 2306 
0 1113 9639 
0 1090 5153 
0 1064 2633 
0 1060 9299 
0 1056 8428 
0 1048 8721 
0 1042 9547 
0 1108 3767 
0 1319 5089 
0 1289 9068 
0 1283 7061 
0 1282 4357 
0 1273 2798 
0 1301 8619 
0 1341 6717 
0 1340 7829 
0 1339 5316 
0 1320 564 
0 1317 9702 
0 1315 5034 
0 1313 1641 
0 1313 7191 
0 1307 9148 
0 79 4589 
0 1288 8542 
0 1272 9679 
1 2354 3528 
1 2363 3528 
1 2362 3528 
1 2376 3528 
1 2377 3528 
1 2379 3528 
1 2380 3528 
0 174 7268 
0 174 7774 
0 159 7268 
0 159 7774 
0 170 7774 
0 157 9496 
0 1296 6298 
0 1296 3237 
0 1296 1342 
0 1292 7268 
0 115 9135 
0 1330 4819 
0 1328 401 
1 1590 8246 
1 1590 1081 
1 1590 3929 
1 1597 8246 
1 1592 3929 
1 1591 8246 
1 1591 1081 
1 1588 359 
1 1577 359 
1 1576 8246 
1 1576 1081 
1 1576 3929 
1 1570 8246 
1 1583 8246 
1 1575 8246 
1 1589 8246 
1 1589 1081 
1 1589 3929 
1 1581 1081 
1 1581 3929 
1 1596 8246 
0 129 6647 
0 97 2712 
0 95 4569 
0 160 124 
0 152 7104 
0 147 3275 
0 174 124 
0 159 124 
0 121 201 
1 1601 1079 
1 1571 1079 
1 1582 1079 
1 1588 1079 
1 1587 1079 
1 1578 1079 
1 1577 1079 
1 1579 1079 
0 138 6779 
0 131 2851 
0 280 3367 
0 71 3704 
0 243 7130 
0 243 3704 
0 241 3367 
0 150 7130 
0 150 3704 
0 148 3367 
